----- GAMESS execution script 'rungms' -----
This job is running on host amlan-PT-3420
under operating system Linux at Fri Dec 13 16:53:05 IST 2019
Available scratch disk space (Kbyte units) at beginning of the job is
Filesystem      1K-blocks     Used  Available Use% Mounted on
/dev/sda3      1916812448 68419504 1751001432   4% /
GAMESS temporary binary files will be written to /tmp
GAMESS supplementary output files will be written to /tmp
Copying input file co_b3lyp.inp to your run's scratch directory...

 Distributed Data Interface kickoff program.
 Initiating 1 compute processes on 1 nodes to run the following command:
 /home/akroy/gamess/gamess.01.x co_b3lyp 

          ******************************************************
          *         GAMESS VERSION = 30 SEP 2018 (R3)         *
          *             FROM IOWA STATE UNIVERSITY             *
          * M.W.SCHMIDT, K.K.BALDRIDGE, J.A.BOATZ, S.T.ELBERT, *
          *   M.S.GORDON, J.H.JENSEN, S.KOSEKI, N.MATSUNAGA,   *
          *          K.A.NGUYEN, S.J.SU, T.L.WINDUS,           *
          *       TOGETHER WITH M.DUPUIS, J.A.MONTGOMERY       *
          *         J.COMPUT.CHEM.  14, 1347-1363(1993)        *
          **************** 64 BIT LINUX VERSION ****************

  SINCE 1993, STUDENTS AND POSTDOCS WORKING AT IOWA STATE UNIVERSITY
  AND ALSO IN THEIR VARIOUS JOBS AFTER LEAVING ISU HAVE MADE IMPORTANT
  CONTRIBUTIONS TO THE CODE:
     IVANA ADAMOVIC, CHRISTINE AIKENS, YURI ALEXEEV, POOJA ARORA,
     ANDREY ASADCHEV, ROB BELL, PRADIPTA BANDYOPADHYAY, JONATHAN BENTZ,
     BRETT BODE, KURT BRORSEN, CALEB CARLIN, GALINA CHABAN, WEI CHEN,
     CHEOL HO CHOI, PAUL DAY, ALBERT DEFUSCO, NUWAN DESILVA, TIM DUDLEY,
     DMITRI FEDOROV, ALEX FINDLATER, GRAHAM FLETCHER, MARK FREITAG,
     KURT GLAESEMANN, ANASTASIA GUNINA,
     DAN KEMP, GRANT MERRILL, NORIYUKI MINEZAWA, JONATHAN MULLIN,
     TAKESHI NAGATA, SEAN NEDD, HEATHER NETZLOFF, BOSILJKA NJEGIC, RYAN OLSON,
     MIKE PAK, BUU PHAM,
     SPENCER PRUITT, LUKE ROSKOP, JIM SHOEMAKER, LYUDMILA SLIPCHENKO,
     TONY SMITH, SAROM SOK LEANG, JIE SONG, TETSUYA TAKETSUGU, SIMON WEBB,
     PENG XU, SOOHAENG YOO, FEDERICO ZAHARIEV

  ADDITIONAL CODE HAS BEEN PROVIDED BY COLLABORATORS IN OTHER GROUPS:
     IOWA STATE UNIVERSITY:
          JOE IVANIC, AARON WEST, LAIMUTIS BYTAUTAS, KLAUS RUEDENBERG
     UNIVERSITY OF TOKYO: KIMIHIKO HIRAO, TAKAHITO NAKAJIMA,
          TAKAO TSUNEDA, MUNEAKI KAMIYA, SUSUMU YANAGISAWA,
          KIYOSHI YAGI, MAHITO CHIBA, SEIKEN TOKURA, NAOAKI KAWAKAMI
     UNIVERSITY OF AARHUS: FRANK JENSEN
     UNIVERSITY OF IOWA: VISVALDAS KAIRYS, HUI LI
     NATIONAL INST. OF STANDARDS AND TECHNOLOGY: WALT STEVENS, DAVID GARMER
     UNIVERSITY OF PISA: BENEDETTA MENNUCCI, JACOPO TOMASI
     UNIVERSITY OF MEMPHIS: HENRY KURTZ, PRAKASHAN KORAMBATH
     UNIVERSITY OF ALBERTA: TOBY ZENG, MARIUSZ KLOBUKOWSKI
     UNIVERSITY OF NEW ENGLAND: MARK SPACKMAN
     MIE UNIVERSITY: HIROAKI UMEDA
     NAT. INST. OF ADVANCED INDUSTRIAL SCIENCE AND TECHNOLOGY: KAZUO KITAURA
     MICHIGAN STATE UNIVERSITY:
          KAROL KOWALSKI, MARTA WLOCH, JEFFREY GOUR, JESSE LUTZ,
          WEI LI, JUN SHEN, J. EMILIANO DEUSTUA, PIOTR PIECUCH
     UNIVERSITY OF MINNESOTA:
          YINAN SHU
     UNIVERSITY OF SILESIA: MONIKA MUSIAL, STANISLAW KUCHARSKI
     FACULTES UNIVERSITAIRES NOTRE-DAME DE LA PAIX:
          OLIVIER QUINET, BENOIT CHAMPAGNE
     UNIVERSITY OF CALIFORNIA - SANTA BARBARA: BERNARD KIRTMAN
     INSTITUTE FOR MOLECULAR SCIENCE:
          KAZUYA ISHIMURA, MICHIO KATOUDA, AND SHIGERU NAGASE
     UNIVERSITY OF NOTRE DAME: ANNA POMOGAEVA, DAN CHIPMAN
     KYUSHU UNIVERSITY:
          HARUYUKI NAKANO,
          FENG LONG GU, JACEK KORCHOWIEC, MARCIN MAKOWSKI, AND YURIKO AOKI,
          HIROTOSHI MORI AND EISAKU MIYOSHI
     PENNSYLVANIA STATE UNIVERSITY:
          TZVETELIN IORDANOV, CHET SWALINA, JONATHAN SKONE,
          SHARON HAMMES-SCHIFFER
     WASEDA UNIVERSITY:
          MASATO KOBAYASHI, TOMOKO AKAMA, TSUGUKI TOUMA,
          TAKESHI YOSHIKAWA, YASUHIRO IKABATA, JUNJI SEINO,
          YUYA NAKAJIMA, HIROMI NAKAI
     NANJING UNIVERSITY: SHUHUA LI
     UNIVERSITY OF NEBRASKA:
          PEIFENG SU, DEJUN SI, NANDUN THELLAMUREGE, YALI WANG, HUI LI
     UNIVERSITY OF ZURICH: ROBERTO PEVERATI, KIM BALDRIDGE
     N. COPERNICUS UNIVERSITY AND JACKSON STATE UNIVERSITY:
          MARIA BARYSZ
     UNIVERSITY OF COPENHAGEN: Jimmy Kromann, CASPER STEINMANN
     TOKYO INSTITUTE OF TECHNOLOGY: HIROYA NAKATA
     NAGOYA UNIVERSITY: YOSHIO NISHIMOTO, STEPHAN IRLE
     MOSCOW STATE UNIVERSITY: VLADIMIR MIRONOV

 EXECUTION OF GAMESS BEGUN Fri Dec 13 16:53:05 2019

            ECHO OF THE FIRST FEW INPUT CARDS -
 INPUT CARD> $CONTRL SCFTYP=UHF RUNTYP=ENERGY COORD=CART UNITS=ANGS MULT=3 $END             
 INPUT CARD> $SYSTEM MWORDS=200 $END                                                        
 INPUT CARD> $DFT METHOD=GRID DFTTYP=B3LYP $END                                             
 INPUT CARD> $BASIS EXTFIL=.TRUE. GBASIS=6311GDS $END                                       
 INPUT CARD> $GUESS GUESS=HUCKEL $END                                                       
 INPUT CARD> $DATA                                                                          
 INPUT CARD>CARBON MONOXIDE                                                                 
 INPUT CARD>C1                                                                              
 INPUT CARD>C    6.0   0.0000   0.0000   0.0000                                             
 INPUT CARD>O    8.0   0.0000   0.0000   1.1282                                             
 INPUT CARD> $END                                                                           
 INPUT CARD>~                                                                               
  200000000 WORDS OF MEMORY AVAILABLE


                    * * * WARNING * * *
 OLD KEYWORD COORD=CART SELECTED, AUTOMATICALLY CHANGED TO COORD=PRINAXIS.
 YOUR MOLECULE'S COORDINATES WILL BE CHANGED TO PRINCIPAL AXES BY
   A) TRANSLATION TO THE CENTER OF MASS, THEN
   B) ROTATION TO HAVE A DIAGONAL MOMENT OF INERTIA TENSOR.

 HOWEVER, NOTHING ELSE IN YOUR INPUT WILL BE ROTATED IN THE SAME WAY,
 SO IF YOU HAVE A $VEC, $VIB, $GRAD, $HESS, EFP PARTICLE COORDINATES,
 OR ANYTHING ELSE THAT DEPENDS ON THE INITIAL ORIENTATION, THAT DATA
 WILL NOT BE USED CORRECTLY IN THIS RUN.

 THE PURPOSE OF COORD=PRINAXIS IS TO BE USED ONCE, ONLY AT THE VERY
 BEGINNING OF A SERIES OF COMPUTATIONS, PERHAPS TO FIND THE SYMMETRY
 UNIQUE ATOMS FROM AN ARBITRARY INITIAL ORIENTATION.

 AFTER THE FIRST RUN, YOU SHOULD USE ONLY COORD=UNIQUE, TO ENSURE THAT
 THE COORDINATES WHICH YOU READ IN ARE THE COORDINATES THAT ARE USED.


     $BASIS REQUESTS READING THE "6311GDS " BASIS SET FROM AN EXTERNAL FILE


     RUN TITLE
     ---------
 CARBON MONOXIDE                                                                 

 THE POINT GROUP OF THE MOLECULE IS C1      
 THE ORDER OF THE PRINCIPAL AXIS IS     0

 THE MOMENTS OF INERTIA ARE (AMU-ANGSTROM**2)
 IXX=     8.727   IYY=     8.727   IZZ=     0.000

 THE EXTERNAL BASIS SET FILE BEING READ IS
     "/home/akroy/gamess/EXTFILE.txt"

 ATOM      ATOMIC                      COORDINATES (BOHR)
           CHARGE         X                   Y                   Z
 C           6.0     0.0000000000        0.0000000000       -1.2181132187
 O           8.0     0.0000000000        0.0000000000        0.9138756407

          INTERNUCLEAR DISTANCES (ANGS.)
          ------------------------------

                1 C          2 O     

   1 C       0.0000000    1.1282000 *
   2 O       1.1282000 *  0.0000000  

  * ... LESS THAN  3.000


     ATOMIC BASIS SET
     ----------------
 THE CONTRACTED PRIMITIVE FUNCTIONS HAVE BEEN UNNORMALIZED
 THE CONTRACTED BASIS FUNCTIONS ARE NOW NORMALIZED TO UNITY

  SHELL TYPE  PRIMITIVE        EXPONENT          CONTRACTION COEFFICIENT(S)

 C         

      1   S       1          4563.2400000    0.001966650249
      1   S       2           682.0240000    0.015230601932
      1   S       3           154.9730000    0.076126909656
      1   S       4            44.4553000    0.260801033080
      1   S       5            13.0290000    0.616462078191
      1   S       6             1.8277300    0.221006028032

      2   L       7            20.9642000    0.114660080729    0.040248692673
      2   L       8             4.8033100    0.919999647749    0.237593956746
      2   L       9             1.4593300   -0.003030682134    0.815853851473

      3   L      10             0.4834560    1.000000000000    1.000000000000

      4   L      11             0.1455850    1.000000000000    1.000000000000

      5   L      12             0.0438000    1.000000000000    1.000000000000

      6   D      13             0.6260000    1.000000000000                   

 O         

      7   S      14          8588.5000000    0.001895150083
      7   S      15          1297.2300000    0.014385900631
      7   S      16           299.2960000    0.070732003103
      7   S      17            87.3771000    0.240001010530
      7   S      18            25.6789000    0.594797026097
      7   S      19             3.7400400    0.280802012320

      8   L      20            42.1175000    0.113889012440    0.036511397380
      8   L      21             9.6283700    0.920811100576    0.237152982984
      8   L      22             2.8533200   -0.003274470358    0.819701941186

      9   L      23             0.9056610    1.000000000000    1.000000000000

     10   L      24             0.2556110    1.000000000000    1.000000000000

     11   L      25             0.0845000    1.000000000000    1.000000000000

     12   D      26             1.2920000    1.000000000000

 TOTAL NUMBER OF BASIS SET SHELLS             =   12
 NUMBER OF CARTESIAN GAUSSIAN BASIS FUNCTIONS =   46
 NUMBER OF ELECTRONS                          =   14
 CHARGE OF MOLECULE                           =    0
 SPIN MULTIPLICITY                            =    3
 NUMBER OF OCCUPIED ORBITALS (ALPHA)          =    8
 NUMBER OF OCCUPIED ORBITALS (BETA )          =    6
 TOTAL NUMBER OF ATOMS                        =    2
 THE NUCLEAR REPULSION ENERGY IS       22.5141889413

 THIS MOLECULE IS RECOGNIZED AS BEING LINEAR,
 ORBITAL LZ DEGENERACY TOLERANCE ETOLLZ= 1.00E-06

 *** WARNING ***
 KEYWORD DFTTYP IN $DFT IS NOW OBSOLETE.
 PLEASE ENTER DFTTYP IN THE $CONTRL GROUP IN FUTURE INPUT FILES.


     LEBEDEV GRID-BASED DFT OPTIONS
     ------------------------------
     DFTTYP=B3LYP   
     NRAD  =      96     NLEB  =     302
     NRAD0 =      24     NLEB0 =     110
     SWOFF =    5.00E-03 (PURE SCF -> DFT)
     SWITCH=    3.00E-04 (COARSE -> TIGHT GRID)
     THRESH=    0.00E+00 GTHRE=    1.00E+00

 GRIMME'S EMPIRICAL DISPERSION CORRECTION= F

     $CONTRL OPTIONS
     ---------------
 SCFTYP=UHF          RUNTYP=ENERGY       EXETYP=RUN     
 MPLEVL=       0     CITYP =NONE         CCTYP =NONE         VBTYP =NONE    
 DFTTYP=B3LYP        TDDFT =NONE    
 MULT  =       3     ICHARG=       0     NZVAR =       0     COORD =PRINAXIS
 PP    =NONE         RELWFN=NONE         LOCAL =NONE         NUMGRD=       F
 ISPHER=      -1     NOSYM =       0     MAXIT =      30     UNITS =ANGS    
 PLTORB=       F     MOLPLT=       F     AIMPAC=       F     FRIEND=        
 NPRINT=       7     IREST =       0     GEOM  =INPUT   
 NORMF =       0     NORMP =       0     ITOL  =      20     ICUT  =       9
 INTTYP=BEST         GRDTYP=BEST         QMTTOL= 1.0E-06

     $SYSTEM OPTIONS
     ---------------
  REPLICATED MEMORY=   200000000 WORDS (ON EVERY NODE).
 DISTRIBUTED MEMDDI=           0 MILLION WORDS IN AGGREGATE,
 MEMDDI DISTRIBUTED OVER   1 PROCESSORS IS           0 WORDS/PROCESSOR.
 TOTAL MEMORY REQUESTED ON EACH PROCESSOR=   200000000 WORDS.
 TIMLIM=      525600.00 MINUTES, OR     365.0 DAYS.
 PARALL= F  BALTYP=  DLB     KDIAG=    0  COREFL= F
 MXSEQ2=     300 MXSEQ3=     150  mem10=         0

          ----------------
          PROPERTIES INPUT
          ----------------

     MOMENTS            FIELD           POTENTIAL          DENSITY
 IEMOM =       1   IEFLD =       0   IEPOT =       0   IEDEN =       0
 WHERE =COMASS     WHERE =NUCLEI     WHERE =NUCLEI     WHERE =NUCLEI  
 OUTPUT=BOTH       OUTPUT=BOTH       OUTPUT=BOTH       OUTPUT=BOTH    
 IEMINT=       0   IEFINT=       0                     IEDINT=       0
                                                       MORB  =       0
          EXTRAPOLATION IN EFFECT
          DIIS IN EFFECT
          DIIS or SOSCF will be reset if energy rises
 ORBITAL PRINTING OPTION: NPREO=     1    46     2     1

     -------------------------------
     INTEGRAL TRANSFORMATION OPTIONS
     -------------------------------
     NWORD  =            0
     CUTOFF = 1.0E-09     MPTRAN =       0
     DIRTRF =       F     AOINTS =DUP     

          ----------------------
          INTEGRAL INPUT OPTIONS
          ----------------------
 NOPK  =       1 NORDER=       0 SCHWRZ=       F

     ------------------------------------------
     THE POINT GROUP IS C1 , NAXIS= 0, ORDER= 1
     ------------------------------------------

     DIMENSIONS OF THE SYMMETRY SUBSPACES ARE
 A   =   46

 ..... DONE SETTING UP THE RUN .....
 STEP CPU TIME =     0.01 TOTAL CPU TIME =          0.0 (      0.0 MIN)
 TOTAL WALL CLOCK TIME=          0.0 SECONDS, CPU UTILIZATION IS   100.00%

          ********************
          1 ELECTRON INTEGRALS
          ********************
 ...... END OF ONE-ELECTRON INTEGRALS ......
 STEP CPU TIME =     0.00 TOTAL CPU TIME =          0.0 (      0.0 MIN)
 TOTAL WALL CLOCK TIME=          0.0 SECONDS, CPU UTILIZATION IS   100.00%

          -------------
          GUESS OPTIONS
          -------------
          GUESS =HUCKEL            NORB  =       0          NORDER=       0
          MIX   =       F          PRTMO =       F          PUNMO =       F
          TOLZ  = 1.0E-08          TOLE  = 1.0E-05
          SYMDEN=       F          PURIFY=       F

 INITIAL GUESS ORBITALS GENERATED BY HUCKEL   ROUTINE.
 HUCKEL GUESS REQUIRES     17602 WORDS.

 SYMMETRIES FOR INITIAL GUESS ORBITALS FOLLOW.  ALPHA SET(S).
     8 ORBITALS ARE OCCUPIED (    2 CORE ORBITALS).
     3=A        4=A        5=A        6=A        7=A        8=A        9=A   
    10=A       11=A       12=A       13=A       14=A       15=A       16=A   
    17=A       18=A   

 SYMMETRIES FOR INITIAL GUESS ORBITALS FOLLOW.   BETA SET(S).
     6 ORBITALS ARE OCCUPIED (    2 CORE ORBITALS).
     3=A        4=A        5=A        6=A        7=A        8=A        9=A   
    10=A       11=A       12=A       13=A       14=A       15=A       16=A   
 ...... END OF INITIAL ORBITAL SELECTION ......
 STEP CPU TIME =     0.01 TOTAL CPU TIME =          0.0 (      0.0 MIN)
 TOTAL WALL CLOCK TIME=          0.0 SECONDS, CPU UTILIZATION IS   100.00%

                    ----------------------
                    AO INTEGRAL TECHNOLOGY
                    ----------------------
     S,P,L SHELL ROTATED AXIS INTEGRALS, REPROGRAMMED BY
        KAZUYA ISHIMURA (IMS) AND JOSE SIERRA (SYNSTAR).
     S,P,D,L SHELL ROTATED AXIS INTEGRALS PROGRAMMED BY
        KAZUYA ISHIMURA (INSTITUTE FOR MOLECULAR SCIENCE).
     S,P,D,F,G SHELL TO TOTAL QUARTET ANGULAR MOMENTUM SUM 5,
        ERIC PROGRAM BY GRAHAM FLETCHER (ELORET AND NASA ADVANCED
        SUPERCOMPUTING DIVISION, AMES RESEARCH CENTER).
     S,P,D,F,G,L SHELL GENERAL RYS QUADRATURE PROGRAMMED BY
        MICHEL DUPUIS (PACIFIC NORTHWEST NATIONAL LABORATORY).

          --------------------
          2 ELECTRON INTEGRALS
          --------------------

 THE -PK- OPTION IS OFF, THE INTEGRALS ARE NOT IN SUPERMATRIX FORM.
 STORING   15000 INTEGRALS/RECORD ON DISK, USING 12 BYTES/INTEGRAL.
 TWO ELECTRON INTEGRAL EVALUATION REQUIRES   90474 WORDS OF MEMORY.
 II,JST,KST,LST =  1  1  1  1 NREC =         1 INTLOC =    1
 II,JST,KST,LST =  2  1  1  1 NREC =         1 INTLOC =    2
 II,JST,KST,LST =  3  1  1  1 NREC =         1 INTLOC =   34
 II,JST,KST,LST =  4  1  1  1 NREC =         1 INTLOC =  214
 II,JST,KST,LST =  5  1  1  1 NREC =         1 INTLOC =  776
 II,JST,KST,LST =  6  1  1  1 NREC =         1 INTLOC = 2074
 II,JST,KST,LST =  7  1  1  1 NREC =         1 INTLOC = 5929
 II,JST,KST,LST =  8  1  1  1 NREC =         1 INTLOC = 8154
 II,JST,KST,LST =  9  1  1  1 NREC =         2 INTLOC = 3923
 II,JST,KST,LST = 10  1  1  1 NREC =         3 INTLOC = 5165
 II,JST,KST,LST = 11  1  1  1 NREC =         4 INTLOC =13345
 II,JST,KST,LST = 12  1  1  1 NREC =         7 INTLOC =   53
 TOTAL NUMBER OF NONZERO TWO-ELECTRON INTEGRALS =              154251
         11 INTEGRAL RECORDS WERE STORED ON DISK FILE  8.
  ...... END OF TWO-ELECTRON INTEGRALS .....
 STEP CPU TIME =     0.02 TOTAL CPU TIME =          0.0 (      0.0 MIN)
 TOTAL WALL CLOCK TIME=          0.0 SECONDS, CPU UTILIZATION IS   100.00%

          ---------------------------
              U-B3LYP SCF CALCULATION
          ---------------------------

     NUCLEAR ENERGY =        22.5141889413
     MAXIT = 30     NPUNCH=  2     MULT=  3
     EXTRAP=T  DAMP=F  SHIFT=F  RSTRCT=F  DIIS=T  SOSCF=F
         DENSITY MATRIX CONVERGENCE THRESHOLD=  1.00E-05
     COARSE -> FINE DFT GRID SWITCH THRESHOLD=  3.00E-04 (SWITCH IN $DFT)
                   HF -> DFT SWITCH THRESHOLD=  5.00E-03 (SWOFF IN $DFT)
     MEMORY REQUIRED FOR UHF/ROHF ITERS=    158150 WORDS.

 DFT CODE IS SWITCHING FROM THE FINE GRID NRAD= 96,  NLEB=  302
                      TO THE COARSE GRID NRAD0= 24, NLEB0=  110

     EXCHANGE FUNCTIONAL   =B88&HFX   
     CORRELATION FUNCTIONAL=LYP88&VWN5
     DFT THRESHOLD         =.690E-07
     GRID CHANGE THRESHOLD =.300E-03
 FOR AN EULER-MACLAURIN QUADRATURE USING  96 RADIAL POINTS:
 SMALLEST GAUSSIAN PRIMITIVE EXPONENT=        0.0438000000 OF TYPE -P-
 ON ATOM NUMBER   1 HAS RADIAL NORMALIZATION=  1.000000
  LARGEST GAUSSIAN PRIMITIVE EXPONENT=     8588.5000000000 OF TYPE -S-
 ON ATOM NUMBER   2 HAS RADIAL NORMALIZATION=  1.000000
 DFT IS SWITCHED OFF, PERFORMING PURE SCF UNTIL SWOFF THRESHOLD IS REACHED.

 ITER EX      TOTAL ENERGY        E CHANGE  DENSITY CHANGE    DIIS ERROR
   1  0     -112.0586748722  -112.0586748722   0.261424959   1.240968004
          * * *   INITIATING DIIS PROCEDURE   * * *
   2  1     -112.4915936761    -0.4329188038   0.162856459   0.245701600
   3  2     -112.5260990823    -0.0345054062   0.089979888   0.183386399
   4  3     -112.5690286849    -0.0429296026   0.018929764   0.031195808
   5  4     -112.5716628494    -0.0026341645   0.013618513   0.017148709
   6  5     -112.5728135485    -0.0011506990   0.015273625   0.011163423
   7  6     -112.5737489538    -0.0009354054   0.015218997   0.009228169
   8  7     -112.5744199908    -0.0006710370   0.018268109   0.006195542
   9  8     -112.5747985816    -0.0003785908   0.006001206   0.001811825
  10  9     -112.5748276526    -0.0000290710   0.000527974   0.000174151
 CONVERGED TO SWOFF, SO DFT CALCULATION IS NOW SWITCHED ON.
          * * *   INITIATING DIIS PROCEDURE   * * *
  11 10     -113.0521657981    -0.4773381455   0.054323895   0.118497196
  12 11     -113.0703895526    -0.0182237545   0.042773712   0.035666603
  13 12     -113.0674101259     0.0029794267   0.024534809   0.076693447
  14 13     -113.0740551121    -0.0066449862   0.008561711   0.010638770
  15 14     -113.0743922831    -0.0003371710   0.007787802   0.005298462
  16 15     -113.0745650047    -0.0001727216   0.002369760   0.002213698
  17 16     -113.0745778952    -0.0000128905   0.000260100   0.000314802
 DFT CODE IS SWITCHING BACK TO THE FINE GRID
          * * *   INITIATING DIIS PROCEDURE   * * *
  18 17     -113.0737645558     0.0008133394   0.001140104   0.002483436
  19 18     -113.0737679571    -0.0000034013   0.000652419   0.000750106
  20 19     -113.0737662601     0.0000016970   0.000446299   0.001531866
  21 20     -113.0737687288    -0.0000024687   0.000035601   0.000035655
  22 21     -113.0737687311    -0.0000000023   0.000012868   0.000013090
  23 22     -113.0737687314    -0.0000000004   0.000004115   0.000005678
  24 23     -113.0737687316    -0.0000000001   0.000002150   0.000001435

          -----------------
          DENSITY CONVERGED
          -----------------
     TIME TO FORM FOCK OPERATORS=       1.8 SECONDS (       0.1 SEC/ITER)
     TIME TO SOLVE SCF EQUATIONS=       0.0 SECONDS (       0.0 SEC/ITER)

 FINAL U-B3LYP ENERGY IS     -113.0737687316 AFTER  24 ITERATIONS
 DFT EXCHANGE + CORRELATION ENERGY =       -11.2138663022
 TOTAL ELECTRON NUMBER             =        13.9999994384

          --------------------
          SPIN SZ   =    1.000
          S-SQUARED =    2.008
          --------------------

 LZ VALUE ANALYSIS FOR THE MOS
 ----------------------------------------
 MO     1 (    1) HAS LZ(WEIGHT)= 0.00(100.0%) 
 MO     2 (    2) HAS LZ(WEIGHT)= 0.00(100.0%) 
 MO     3 (    3) HAS LZ(WEIGHT)= 0.00(100.0%) 
 MO     4 (    4) HAS LZ(WEIGHT)= 0.00(100.0%) 
 MO     5 (    5) HAS LZ(WEIGHT)= 0.00(100.0%) 
 MO     6 (    6) HAS LZ(WEIGHT)= 0.00(100.0%) 
 MO     7 (    7) HAS LZ(WEIGHT)= 0.00(100.0%) 
 MO     8 (    8) HAS LZ(WEIGHT)= 0.00(100.0%) 
 MO     9 (    9) HAS LZ(WEIGHT)= 0.00(100.0%) 
 MO    10 (   10) HAS LZ(WEIGHT)= 0.00(100.0%) 
 MO    11 (   11) HAS LZ(WEIGHT)= 0.00(100.0%) 
 MO    12 (   12) HAS LZ(WEIGHT)= 0.00(100.0%) 
 MO    13 (   13) HAS LZ(WEIGHT)= 0.00(100.0%) 
 MO    14 (   14) HAS LZ(WEIGHT)= 0.00(100.0%) 
 MO    15 (   15) HAS LZ(WEIGHT)= 0.00(100.0%) 
 MO    16 (   16) HAS LZ(WEIGHT)= 0.00(100.0%) 
 MO    17 (   17) HAS LZ(WEIGHT)= 0.00(100.0%) 
 MO    18 (   18) HAS LZ(WEIGHT)= 0.00(100.0%) 
 MO    19 (   19) HAS LZ(WEIGHT)= 0.00(100.0%) 
 MO    20 (   20) HAS LZ(WEIGHT)= 0.00(100.0%) 
 MO    21 (   21) HAS LZ(WEIGHT)= 0.00(100.0%) 
 MO    22 (   22) HAS LZ(WEIGHT)= 0.00(100.0%) 
 MO    23 (   23) HAS LZ(WEIGHT)= 0.00(100.0%) 
 MO    24 (   24) HAS LZ(WEIGHT)= 0.00(100.0%) 
 MO    25 (   25) HAS LZ(WEIGHT)= 0.00(100.0%) 
 MO    26 (   26) HAS LZ(WEIGHT)= 0.00(100.0%) 
 MO    27 (   27) HAS LZ(WEIGHT)= 0.00(100.0%) 
 MO    28 (   28) HAS LZ(WEIGHT)= 0.00(100.0%) 
 MO    29 (   29) HAS LZ(WEIGHT)= 0.00(100.0%) 
 MO    30 (   30) HAS LZ(WEIGHT)= 0.00(100.0%) 
 MO    31 (   31) HAS LZ(WEIGHT)= 0.00(100.0%) 
 MO    32 (   32) HAS LZ(WEIGHT)= 0.00(100.0%) 
 MO    33 (   33) HAS LZ(WEIGHT)= 0.00(100.0%) 
 MO    34 (   34) HAS LZ(WEIGHT)= 0.00(100.0%) 
 MO    35 (   35) HAS LZ(WEIGHT)= 0.00(100.0%) 
 MO    36 (   36) HAS LZ(WEIGHT)= 0.00(100.0%) 
 MO    37 (   37) HAS LZ(WEIGHT)= 0.00(100.0%) 
 MO    38 (   38) HAS LZ(WEIGHT)= 0.00(100.0%) 
 MO    39 (   39) HAS LZ(WEIGHT)= 0.00(100.0%) 
 MO    40 (   40) HAS LZ(WEIGHT)= 0.00(100.0%) 
 MO    41 (   41) HAS LZ(WEIGHT)= 0.00(100.0%) 
 MO    42 (   42) HAS LZ(WEIGHT)= 0.00(100.0%) 
 MO    43 (   43) HAS LZ(WEIGHT)= 0.00(100.0%) 
 MO    44 (   44) HAS LZ(WEIGHT)= 0.00(100.0%) 
 MO    45 (   45) HAS LZ(WEIGHT)= 0.00(100.0%) 
 MO    46 (   46) HAS LZ(WEIGHT)= 0.00(100.0%) 

  ----- ALPHA SET ----- 

          ------------
          EIGENVECTORS
          ------------

                      1          2          3          4          5
                  -19.2074   -10.3214    -1.1591    -0.5880    -0.4909
                     A          A          A          A          A   
    1  C  1  S    0.000036   0.563367  -0.067298  -0.097090  -0.000000
    2  C  1  S   -0.000105   0.459202  -0.103701  -0.155150  -0.000000
    3  C  1  X   -0.000000   0.000000  -0.000000  -0.000000   0.179863
    4  C  1  Y   -0.000000   0.000000  -0.000000  -0.000000  -0.000000
    5  C  1  Z    0.000042   0.000263   0.111498  -0.019672  -0.000000
    6  C  1  S    0.000255   0.023620   0.264692   0.468240  -0.000000
    7  C  1  X   -0.000000   0.000000  -0.000000  -0.000000   0.267438
    8  C  1  Y   -0.000000   0.000000  -0.000000  -0.000000  -0.000000
    9  C  1  Z    0.000867  -0.000885   0.108593  -0.045257  -0.000000
   10  C  1  S   -0.000468   0.011671   0.081909   0.395636  -0.000000
   11  C  1  X   -0.000000   0.000000  -0.000000  -0.000000   0.138154
   12  C  1  Y   -0.000000   0.000000  -0.000000  -0.000000  -0.000000
   13  C  1  Z   -0.000427   0.002431   0.007353  -0.016658  -0.000000
   14  C  1  S    0.000309   0.001387   0.022667   0.009973  -0.000000
   15  C  1  X   -0.000000   0.000000  -0.000000  -0.000000   0.009943
   16  C  1  Y   -0.000000   0.000000  -0.000000  -0.000000  -0.000000
   17  C  1  Z    0.000234   0.000537   0.012953  -0.003143  -0.000000
   18  C  1 XX   -0.000195  -0.008623  -0.022396  -0.001858  -0.000000
   19  C  1 YY   -0.000163  -0.009039  -0.021597  -0.007584  -0.000000
   20  C  1 ZZ    0.000800  -0.008526   0.013762   0.004850  -0.000000
   21  C  1 XY   -0.000000   0.000000  -0.000000  -0.000000  -0.000000
   22  C  1 XZ   -0.000000   0.000000  -0.000000  -0.000000   0.031169
   23  C  1 YZ   -0.000000   0.000000  -0.000000  -0.000000  -0.000000
   24  O  2  S    0.551574  -0.000202  -0.109995   0.062929  -0.000000
   25  O  2  S    0.466246  -0.000262  -0.176733   0.104025  -0.000000
   26  O  2  X   -0.000000   0.000000  -0.000000  -0.000000   0.249920
   27  O  2  Y   -0.000000   0.000000  -0.000000  -0.000000  -0.000000
   28  O  2  Z   -0.001751  -0.000256  -0.089346  -0.176598  -0.000000
   29  O  2  S    0.021524   0.000860   0.512720  -0.314782  -0.000000
   30  O  2  X   -0.000000   0.000000  -0.000000  -0.000000   0.365650
   31  O  2  Y   -0.000000   0.000000  -0.000000  -0.000000  -0.000000
   32  O  2  Z    0.001196  -0.000794  -0.133287  -0.249454  -0.000000
   33  O  2  S    0.001360  -0.000465   0.315274  -0.397998  -0.000000
   34  O  2  X   -0.000000   0.000000  -0.000000  -0.000000   0.262144
   35  O  2  Y   -0.000000   0.000000  -0.000000  -0.000000  -0.000000
   36  O  2  Z   -0.000331  -0.000072  -0.033039  -0.130671  -0.000000
   37  O  2  S   -0.000591  -0.007409  -0.063114  -0.089596  -0.000000
   38  O  2  X   -0.000000   0.000000  -0.000000  -0.000000   0.008829
   39  O  2  Y   -0.000000   0.000000  -0.000000  -0.000000  -0.000000
   40  O  2  Z   -0.000024   0.003036   0.011238   0.015104  -0.000000
   41  O  2 XX   -0.006134  -0.000099  -0.012270  -0.004791  -0.000000
   42  O  2 YY   -0.006336  -0.000034  -0.012668  -0.002231  -0.000000
   43  O  2 ZZ   -0.006355   0.000134   0.021997   0.020425  -0.000000
   44  O  2 XY   -0.000000   0.000000  -0.000000  -0.000000  -0.000000
   45  O  2 XZ   -0.000000   0.000000  -0.000000  -0.000000  -0.024866
   46  O  2 YZ   -0.000000   0.000000  -0.000000  -0.000000  -0.000000

                      6          7          8          9         10
                   -0.4727    -0.4702    -0.1569    -0.0647     0.0246
                     A          A          A          A          A   
    1  C  1  S   -0.050147  -0.000000  -0.000000   0.000000   0.027589
    2  C  1  S   -0.080875  -0.000000  -0.000000   0.000000   0.045198
    3  C  1  X    0.000000  -0.000000   0.251513   0.000000  -0.000000
    4  C  1  Y    0.000000   0.173139  -0.000000   0.229075  -0.000000
    5  C  1  Z   -0.233079  -0.000000  -0.000000   0.000000   0.066506
    6  C  1  S    0.247637  -0.000000  -0.000000   0.000000  -0.205244
    7  C  1  X    0.000000  -0.000000   0.396800   0.000000  -0.000000
    8  C  1  Y    0.000000   0.265729  -0.000000   0.364708  -0.000000
    9  C  1  Z   -0.321505  -0.000000  -0.000000   0.000000   0.068834
   10  C  1  S    0.332819  -0.000000  -0.000000   0.000000   0.300796
   11  C  1  X    0.000000  -0.000000   0.522774   0.000000  -0.000000
   12  C  1  Y    0.000000   0.142588  -0.000000   0.551491  -0.000000
   13  C  1  Z   -0.157242  -0.000000  -0.000000   0.000000   0.498090
   14  C  1  S    0.023601  -0.000000  -0.000000   0.000000   2.235681
   15  C  1  X    0.000000  -0.000000   0.164336   0.000000  -0.000000
   16  C  1  Y    0.000000   0.007984  -0.000000   0.274337  -0.000000
   17  C  1  Z    0.001684  -0.000000  -0.000000   0.000000   0.229194
   18  C  1 XX    0.016913  -0.000000  -0.000000   0.000000  -0.003659
   19  C  1 YY    0.010334  -0.000000  -0.000000   0.000000  -0.002389
   20  C  1 ZZ    0.002432  -0.000000  -0.000000   0.000000  -0.018832
   21  C  1 XY    0.000000  -0.000000  -0.000000   0.000000  -0.000000
   22  C  1 XZ    0.000000  -0.000000  -0.052285   0.000000  -0.000000
   23  C  1 YZ    0.000000   0.039992  -0.000000  -0.049685  -0.000000
   24  O  2  S   -0.015257  -0.000000  -0.000000   0.000000   0.014277
   25  O  2  S   -0.025442  -0.000000  -0.000000   0.000000   0.023628
   26  O  2  X    0.000000  -0.000000  -0.209523   0.000000  -0.000000
   27  O  2  Y    0.000000   0.243022  -0.000000  -0.199922  -0.000000
   28  O  2  Z    0.195469  -0.000000  -0.000000   0.000000  -0.021449
   29  O  2  S    0.071064  -0.000000  -0.000000   0.000000  -0.085342
   30  O  2  X    0.000000  -0.000000  -0.301142   0.000000  -0.000000
   31  O  2  Y    0.000000   0.358051  -0.000000  -0.290837  -0.000000
   32  O  2  Z    0.279929  -0.000000  -0.000000   0.000000  -0.041383
   33  O  2  S    0.158962  -0.000000  -0.000000   0.000000  -0.184710
   34  O  2  X    0.000000  -0.000000  -0.356907   0.000000  -0.000000
   35  O  2  Y    0.000000   0.270012  -0.000000  -0.356180  -0.000000
   36  O  2  Z    0.167932  -0.000000  -0.000000   0.000000   0.042219
   37  O  2  S    0.036793  -0.000000  -0.000000   0.000000  -1.687534
   38  O  2  X    0.000000  -0.000000  -0.219812   0.000000  -0.000000
   39  O  2  Y    0.000000   0.014353  -0.000000  -0.290674  -0.000000
   40  O  2  Z    0.019436  -0.000000  -0.000000   0.000000   0.471404
   41  O  2 XX    0.008342  -0.000000  -0.000000   0.000000  -0.001156
   42  O  2 YY    0.007494  -0.000000  -0.000000   0.000000  -0.000721
   43  O  2 ZZ   -0.024932  -0.000000  -0.000000   0.000000   0.000324
   44  O  2 XY    0.000000  -0.000000  -0.000000   0.000000  -0.000000
   45  O  2 XZ    0.000000  -0.000000  -0.011004   0.000000  -0.000000
   46  O  2 YZ    0.000000  -0.027277  -0.000000  -0.010442  -0.000000

                     11         12         13         14         15
                    0.0511     0.0594     0.0656     0.1810     0.2136
                     A          A          A          A          A   
    1  C  1  S   -0.017435  -0.000000  -0.000000  -0.019431   0.000000
    2  C  1  S   -0.031528  -0.000000  -0.000000  -0.041872   0.000000
    3  C  1  X   -0.000000  -0.115399  -0.000000   0.000000  -0.000323
    4  C  1  Y   -0.000000  -0.000000  -0.129389   0.000000   0.000000
    5  C  1  Z   -0.018967  -0.000000  -0.000000   0.007991   0.000000
    6  C  1  S    0.075087  -0.000000  -0.000000  -0.005813   0.000000
    7  C  1  X   -0.000000  -0.157542  -0.000000   0.000000   0.071910
    8  C  1  Y   -0.000000  -0.000000  -0.179766   0.000000   0.000000
    9  C  1  Z   -0.005997  -0.000000  -0.000000  -0.038525   0.000000
   10  C  1  S    0.575958  -0.000000  -0.000000   1.936447   0.000000
   11  C  1  X   -0.000000  -0.325741  -0.000000   0.000000  -0.276787
   12  C  1  Y   -0.000000  -0.000000  -0.396531   0.000000   0.000000
   13  C  1  Z    0.092262  -0.000000  -0.000000   0.066996   0.000000
   14  C  1  S    0.610299  -0.000000  -0.000000   0.398148   0.000000
   15  C  1  X   -0.000000   1.286461  -0.000000   0.000000  -1.033032
   16  C  1  Y   -0.000000  -0.000000   1.237475   0.000000   0.000000
   17  C  1  Z    1.452444  -0.000000  -0.000000  -0.463893   0.000000
   18  C  1 XX    0.002020  -0.000000  -0.000000  -0.065344   0.000000
   19  C  1 YY    0.001544  -0.000000  -0.000000  -0.066026   0.000000
   20  C  1 ZZ   -0.034975  -0.000000  -0.000000  -0.014468   0.000000
   21  C  1 XY   -0.000000  -0.000000  -0.000000   0.000000   0.000000
   22  C  1 XZ   -0.000000  -0.007947  -0.000000   0.000000  -0.002829
   23  C  1 YZ   -0.000000  -0.000000  -0.005881   0.000000   0.000000
   24  O  2  S    0.020742  -0.000000  -0.000000   0.003883   0.000000
   25  O  2  S    0.034172  -0.000000  -0.000000   0.007234   0.000000
   26  O  2  X   -0.000000   0.005324  -0.000000   0.000000  -0.122182
   27  O  2  Y   -0.000000  -0.000000   0.015342   0.000000   0.000000
   28  O  2  Z   -0.000491  -0.000000  -0.000000  -0.065590   0.000000
   29  O  2  S   -0.127200  -0.000000  -0.000000  -0.022813   0.000000
   30  O  2  X   -0.000000  -0.007529  -0.000000   0.000000  -0.128729
   31  O  2  Y   -0.000000  -0.000000   0.008459   0.000000   0.000000
   32  O  2  Z   -0.008452  -0.000000  -0.000000  -0.074878   0.000000
   33  O  2  S   -0.160825  -0.000000  -0.000000  -0.049548   0.000000
   34  O  2  X   -0.000000   0.103442  -0.000000   0.000000  -0.481419
   35  O  2  Y   -0.000000  -0.000000   0.115755   0.000000   0.000000
   36  O  2  Z    0.060672  -0.000000  -0.000000  -0.234845   0.000000
   37  O  2  S   -1.172668  -0.000000  -0.000000  -1.428597   0.000000
   38  O  2  X   -0.000000  -0.228161  -0.000000   0.000000   1.991175
   39  O  2  Y   -0.000000  -0.000000  -0.133621   0.000000   0.000000
   40  O  2  Z    0.035203  -0.000000  -0.000000   2.255884   0.000000
   41  O  2 XX   -0.002091  -0.000000  -0.000000  -0.009396   0.000000
   42  O  2 YY   -0.001639  -0.000000  -0.000000  -0.009449   0.000000
   43  O  2 ZZ   -0.002733  -0.000000  -0.000000   0.027331   0.000000
   44  O  2 XY   -0.000000  -0.000000  -0.000000   0.000000   0.000000
   45  O  2 XZ   -0.000000   0.009759  -0.000000   0.000000   0.014743
   46  O  2 YZ   -0.000000  -0.000000   0.011512   0.000000   0.000000

                     16         17         18         19         20
                    0.2154     0.2666     0.3626     0.4941     0.5040
                     A          A          A          A          A   
    1  C  1  S    0.000000   0.007846   0.055690   0.000000   0.000000
    2  C  1  S    0.000000   0.017564   0.095083   0.000000   0.000000
    3  C  1  X    0.000000   0.000000   0.000000  -0.249139   0.000000
    4  C  1  Y    0.007083   0.000000   0.000000   0.000000  -0.251586
    5  C  1  Z    0.000000   0.045504   0.001143   0.000000   0.000000
    6  C  1  S    0.000000  -0.011931  -0.335070   0.000000   0.000000
    7  C  1  X    0.000000   0.000000   0.000000  -0.860138   0.000000
    8  C  1  Y    0.077815   0.000000   0.000000   0.000000  -0.884773
    9  C  1  Z    0.000000   0.123407  -0.015055   0.000000   0.000000
   10  C  1  S    0.000000  -1.811315  -4.569338   0.000000   0.000000
   11  C  1  X    0.000000   0.000000   0.000000   1.790002   0.000000
   12  C  1  Y   -0.226717   0.000000   0.000000   0.000000   1.774946
   13  C  1  Z    0.000000  -0.310561  -3.219692   0.000000   0.000000
   14  C  1  S    0.000000  -3.119781  -1.858244   0.000000   0.000000
   15  C  1  X    0.000000   0.000000   0.000000  -0.636504   0.000000
   16  C  1  Y   -1.081671   0.000000   0.000000   0.000000  -0.611770
   17  C  1  Z    0.000000  -1.603789   0.287495   0.000000   0.000000
   18  C  1 XX    0.000000   0.047800  -0.024623   0.000000   0.000000
   19  C  1 YY    0.000000   0.050069  -0.021427   0.000000   0.000000
   20  C  1 ZZ    0.000000  -0.027079   0.026401   0.000000   0.000000
   21  C  1 XY    0.000000   0.000000   0.000000   0.000000   0.000000
   22  C  1 XZ    0.000000   0.000000   0.000000  -0.018572   0.000000
   23  C  1 YZ   -0.006097   0.000000   0.000000   0.000000  -0.020375
   24  O  2  S    0.000000   0.044396  -0.021473   0.000000   0.000000
   25  O  2  S    0.000000   0.080992  -0.041245   0.000000   0.000000
   26  O  2  X    0.000000   0.000000   0.000000   0.019525   0.000000
   27  O  2  Y   -0.128164   0.000000   0.000000   0.000000   0.023695
   28  O  2  Z    0.000000  -0.018434  -0.122700   0.000000   0.000000
   29  O  2  S    0.000000  -0.209004   0.038432   0.000000   0.000000
   30  O  2  X    0.000000   0.000000   0.000000   0.063346   0.000000
   31  O  2  Y   -0.138576   0.000000   0.000000   0.000000   0.064178
   32  O  2  Z    0.000000   0.032063  -0.155126   0.000000   0.000000
   33  O  2  S    0.000000  -1.280367   1.938806   0.000000   0.000000
   34  O  2  X    0.000000   0.000000   0.000000  -0.194348   0.000000
   35  O  2  Y   -0.506674   0.000000   0.000000   0.000000  -0.159412
   36  O  2  Z    0.000000  -0.303635  -1.068161   0.000000   0.000000
   37  O  2  S    0.000000   6.217710   4.831130   0.000000   0.000000
   38  O  2  X    0.000000   0.000000   0.000000  -0.236915   0.000000
   39  O  2  Y    1.990946   0.000000   0.000000   0.000000  -0.268378
   40  O  2  Z    0.000000  -0.776056  -1.660780   0.000000   0.000000
   41  O  2 XX    0.000000   0.029075  -0.025892   0.000000   0.000000
   42  O  2 YY    0.000000   0.030163  -0.026513   0.000000   0.000000
   43  O  2 ZZ    0.000000   0.016007  -0.014967   0.000000   0.000000
   44  O  2 XY    0.000000   0.000000   0.000000   0.000000   0.000000
   45  O  2 XZ    0.000000   0.000000   0.000000   0.016282   0.000000
   46  O  2 YZ    0.014760   0.000000   0.000000   0.000000   0.017940

                     21         22         23         24         25
                    0.5884     0.7977     1.0111     1.0314     1.0343
                     A          A          A          A          A   
    1  C  1  S    0.029780   0.097429   0.042977   0.000000  -0.000000
    2  C  1  S    0.024666   0.126085   0.076542   0.000000  -0.000000
    3  C  1  X   -0.000000  -0.000000  -0.000000   0.010865  -0.000000
    4  C  1  Y   -0.000000  -0.000000  -0.000000   0.000000   0.013216
    5  C  1  Z    0.260082  -0.184697  -0.150130   0.000000  -0.000000
    6  C  1  S   -0.686405  -1.949067  -0.181689   0.000000  -0.000000
    7  C  1  X   -0.000000  -0.000000  -0.000000  -0.178742  -0.000000
    8  C  1  Y   -0.000000  -0.000000  -0.000000   0.000000  -0.168292
    9  C  1  Z    0.942809  -0.696866   0.364890   0.000000  -0.000000
   10  C  1  S    5.069035   4.978735   5.718398   0.000000  -0.000000
   11  C  1  X   -0.000000  -0.000000  -0.000000  -0.181982  -0.000000
   12  C  1  Y   -0.000000  -0.000000  -0.000000   0.000000  -0.198564
   13  C  1  Z    0.497521   1.497024   2.660405   0.000000  -0.000000
   14  C  1  S    0.485113   0.852290   1.052780   0.000000  -0.000000
   15  C  1  X   -0.000000  -0.000000  -0.000000   0.533076  -0.000000
   16  C  1  Y   -0.000000  -0.000000  -0.000000   0.000000   0.537506
   17  C  1  Z    0.569418  -0.000597   0.261298   0.000000  -0.000000
   18  C  1 XX   -0.081012  -0.305594  -0.171418   0.000000  -0.000000
   19  C  1 YY   -0.082020  -0.290513  -0.175614   0.000000  -0.000000
   20  C  1 ZZ   -0.254369  -0.260925   0.402090   0.000000  -0.000000
   21  C  1 XY   -0.000000  -0.000000  -0.000000   0.000000  -0.000000
   22  C  1 XZ   -0.000000  -0.000000  -0.000000  -0.055533  -0.000000
   23  C  1 YZ   -0.000000  -0.000000  -0.000000   0.000000  -0.063572
   24  O  2  S    0.020895  -0.026546  -0.010839   0.000000  -0.000000
   25  O  2  S    0.037298  -0.043248  -0.013118   0.000000  -0.000000
   26  O  2  X   -0.000000  -0.000000  -0.000000  -0.255448  -0.000000
   27  O  2  Y   -0.000000  -0.000000  -0.000000   0.000000  -0.256600
   28  O  2  Z    0.128676  -0.060282  -0.266120   0.000000  -0.000000
   29  O  2  S   -0.072218   0.149730   0.293254   0.000000  -0.000000
   30  O  2  X   -0.000000  -0.000000  -0.000000  -0.823490  -0.000000
   31  O  2  Y   -0.000000  -0.000000  -0.000000   0.000000  -0.833867
   32  O  2  Z    0.173123  -0.075345  -0.621687   0.000000  -0.000000
   33  O  2  S   -1.093274  -0.078899  -2.926234   0.000000  -0.000000
   34  O  2  X   -0.000000  -0.000000  -0.000000   1.934408  -0.000000
   35  O  2  Y   -0.000000  -0.000000  -0.000000   0.000000   1.933882
   36  O  2  Z    1.081413  -0.967429   2.958190   0.000000  -0.000000
   37  O  2  S   -3.465324  -3.722028  -4.185107   0.000000  -0.000000
   38  O  2  X   -0.000000  -0.000000  -0.000000  -1.256370  -0.000000
   39  O  2  Y   -0.000000  -0.000000  -0.000000   0.000000  -1.250766
   40  O  2  Z    1.093805   2.101369   0.610468   0.000000  -0.000000
   41  O  2 XX   -0.001065   0.036140   0.055765   0.000000  -0.000000
   42  O  2 YY   -0.000388   0.036840   0.054611   0.000000  -0.000000
   43  O  2 ZZ    0.032328  -0.044002  -0.020229   0.000000  -0.000000
   44  O  2 XY   -0.000000  -0.000000  -0.000000   0.000000  -0.000000
   45  O  2 XZ   -0.000000  -0.000000  -0.000000   0.027663  -0.000000
   46  O  2 YZ   -0.000000  -0.000000  -0.000000   0.000000   0.028978

                     26         27         28         29         30
                    1.2141     1.2172     1.3173     1.3610     1.3632
                     A          A          A          A          A   
    1  C  1  S   -0.000000  -0.000817   0.003604   0.000000  -0.000000
    2  C  1  S   -0.000000   0.000134   0.000306   0.000000  -0.000000
    3  C  1  X   -0.000000   0.000000   0.000000  -0.002984  -0.000000
    4  C  1  Y   -0.000000   0.000000   0.000000   0.000000  -0.009239
    5  C  1  Z   -0.000000  -0.000605   0.021173   0.000000  -0.000000
    6  C  1  S   -0.000000   0.003755  -0.421402   0.000000  -0.000000
    7  C  1  X   -0.000000   0.000000   0.000000  -0.021884  -0.000000
    8  C  1  Y   -0.000000   0.000000   0.000000   0.000000  -0.025715
    9  C  1  Z   -0.000000   0.002833  -0.518551   0.000000  -0.000000
   10  C  1  S   -0.000000  -0.041068  -1.218483   0.000000  -0.000000
   11  C  1  X   -0.000000   0.000000   0.000000   0.319285  -0.000000
   12  C  1  Y   -0.000000   0.000000   0.000000   0.000000   0.316612
   13  C  1  Z   -0.000000  -0.023767  -1.039017   0.000000  -0.000000
   14  C  1  S   -0.000000   0.035444   1.240273   0.000000  -0.000000
   15  C  1  X   -0.000000   0.000000   0.000000  -0.117408  -0.000000
   16  C  1  Y   -0.000000   0.000000   0.000000   0.000000  -0.114819
   17  C  1  Z   -0.000000   0.022642   0.777069   0.000000  -0.000000
   18  C  1 XX   -0.000000  -0.849156   0.068128   0.000000  -0.000000
   19  C  1 YY   -0.000000   0.858007   0.022003   0.000000  -0.000000
   20  C  1 ZZ   -0.000000   0.011506  -0.324536   0.000000  -0.000000
   21  C  1 XY    0.986136   0.000000   0.000000   0.000000  -0.000000
   22  C  1 XZ   -0.000000   0.000000   0.000000   1.046764  -0.000000
   23  C  1 YZ   -0.000000   0.000000   0.000000   0.000000   1.045927
   24  O  2  S   -0.000000   0.003305   0.100434   0.000000  -0.000000
   25  O  2  S   -0.000000   0.004456   0.133721   0.000000  -0.000000
   26  O  2  X   -0.000000   0.000000   0.000000  -0.071159  -0.000000
   27  O  2  Y   -0.000000   0.000000   0.000000   0.000000  -0.074868
   28  O  2  Z   -0.000000  -0.000354  -0.057159   0.000000  -0.000000
   29  O  2  S   -0.000000  -0.048962  -1.597534   0.000000  -0.000000
   30  O  2  X   -0.000000   0.000000   0.000000  -0.158057  -0.000000
   31  O  2  Y   -0.000000   0.000000   0.000000   0.000000  -0.167880
   32  O  2  Z   -0.000000  -0.000967  -0.328826   0.000000  -0.000000
   33  O  2  S   -0.000000   0.111149   4.952767   0.000000  -0.000000
   34  O  2  X   -0.000000   0.000000   0.000000  -0.475031  -0.000000
   35  O  2  Y   -0.000000   0.000000   0.000000   0.000000  -0.463303
   36  O  2  Z   -0.000000   0.007536  -0.579601   0.000000  -0.000000
   37  O  2  S   -0.000000  -0.067920  -2.634679   0.000000  -0.000000
   38  O  2  X   -0.000000   0.000000   0.000000   0.145244  -0.000000
   39  O  2  Y   -0.000000   0.000000   0.000000   0.000000   0.139177
   40  O  2  Z   -0.000000  -0.012805  -0.052631   0.000000  -0.000000
   41  O  2 XX   -0.000000  -0.081574  -0.203474   0.000000  -0.000000
   42  O  2 YY   -0.000000   0.068916  -0.204322   0.000000  -0.000000
   43  O  2 ZZ   -0.000000  -0.007037  -0.204994   0.000000  -0.000000
   44  O  2 XY    0.086532   0.000000   0.000000   0.000000  -0.000000
   45  O  2 XZ   -0.000000   0.000000   0.000000  -0.127264  -0.000000
   46  O  2 YZ   -0.000000   0.000000   0.000000   0.000000  -0.126911

                     31         32         33         34         35
                    1.9686     2.5766     2.5884     2.7532     2.7921
                     A          A          A          A          A   
    1  C  1  S   -0.017581  -0.000000  -0.000000  -0.138231  -0.000000
    2  C  1  S   -0.036254  -0.000000  -0.000000  -0.469123  -0.000000
    3  C  1  X    0.000000  -1.278898  -0.000000  -0.000000  -0.000000
    4  C  1  Y    0.000000  -0.000000  -1.282201  -0.000000  -0.000000
    5  C  1  Z    0.475395  -0.000000  -0.000000  -0.846801  -0.000000
    6  C  1  S   -0.190384  -0.000000  -0.000000   1.359671  -0.000000
    7  C  1  X    0.000000   1.509183  -0.000000  -0.000000  -0.000000
    8  C  1  Y    0.000000  -0.000000   1.502148  -0.000000  -0.000000
    9  C  1  Z    0.047900  -0.000000  -0.000000   1.334250  -0.000000
   10  C  1  S    2.635742  -0.000000  -0.000000   3.627912  -0.000000
   11  C  1  X    0.000000  -0.904799  -0.000000  -0.000000  -0.000000
   12  C  1  Y    0.000000  -0.000000  -0.899875  -0.000000  -0.000000
   13  C  1  Z    1.471618  -0.000000  -0.000000   0.358189  -0.000000
   14  C  1  S    0.546715  -0.000000  -0.000000   0.152128  -0.000000
   15  C  1  X    0.000000   0.206477  -0.000000  -0.000000  -0.000000
   16  C  1  Y    0.000000  -0.000000   0.205054  -0.000000  -0.000000
   17  C  1  Z   -0.070761  -0.000000  -0.000000   0.219482  -0.000000
   18  C  1 XX   -0.665421  -0.000000  -0.000000  -1.333930  -0.000000
   19  C  1 YY   -0.674049  -0.000000  -0.000000  -1.339864  -0.000000
   20  C  1 ZZ    1.310120  -0.000000  -0.000000  -0.663952  -0.000000
   21  C  1 XY    0.000000  -0.000000  -0.000000  -0.000000  -0.203785
   22  C  1 XZ    0.000000  -0.103835  -0.000000  -0.000000  -0.000000
   23  C  1 YZ    0.000000  -0.000000  -0.106099  -0.000000  -0.000000
   24  O  2  S    0.041018  -0.000000  -0.000000   0.012163  -0.000000
   25  O  2  S    0.058067  -0.000000  -0.000000   0.014766  -0.000000
   26  O  2  X    0.000000  -0.017274  -0.000000  -0.000000  -0.000000
   27  O  2  Y    0.000000  -0.000000  -0.017114  -0.000000  -0.000000
   28  O  2  Z    0.156331  -0.000000  -0.000000   0.016919  -0.000000
   29  O  2  S   -0.654089  -0.000000  -0.000000  -0.221166  -0.000000
   30  O  2  X    0.000000  -0.058955  -0.000000  -0.000000  -0.000000
   31  O  2  Y    0.000000  -0.000000  -0.058193  -0.000000  -0.000000
   32  O  2  Z    0.720425  -0.000000  -0.000000   0.290157  -0.000000
   33  O  2  S   -0.934435  -0.000000  -0.000000  -0.756727  -0.000000
   34  O  2  X    0.000000   0.037335  -0.000000  -0.000000  -0.000000
   35  O  2  Y    0.000000  -0.000000   0.037178  -0.000000  -0.000000
   36  O  2  Z    0.036672  -0.000000  -0.000000   0.343866  -0.000000
   37  O  2  S   -1.869299  -0.000000  -0.000000  -1.799240  -0.000000
   38  O  2  X    0.000000   0.143093  -0.000000  -0.000000  -0.000000
   39  O  2  Y    0.000000  -0.000000   0.142779  -0.000000  -0.000000
   40  O  2  Z    0.775403  -0.000000  -0.000000   0.717805  -0.000000
   41  O  2 XX   -0.124563  -0.000000  -0.000000  -0.071516  -0.000000
   42  O  2 YY   -0.123571  -0.000000  -0.000000  -0.037519  -0.000000
   43  O  2 ZZ   -0.024023  -0.000000  -0.000000  -0.021292  -0.000000
   44  O  2 XY    0.000000  -0.000000  -0.000000  -0.000000   1.003247
   45  O  2 XZ    0.000000  -0.204416  -0.000000  -0.000000  -0.000000
   46  O  2 YZ    0.000000  -0.000000  -0.203515  -0.000000  -0.000000

                     36         37         38         39         40
                    2.7934     3.1935     3.3536     3.3537     3.6727
                     A          A          A          A          A   
    1  C  1  S    0.003224   0.100172   0.000000   0.000000   0.046423
    2  C  1  S    0.010755   0.409771   0.000000   0.000000   0.106599
    3  C  1  X    0.000000  -0.000000   0.000000  -0.344623   0.000000
    4  C  1  Y    0.000000  -0.000000  -0.344461   0.000000   0.000000
    5  C  1  Z    0.012933  -1.028814   0.000000   0.000000  -0.110095
    6  C  1  S   -0.030197  -0.613971   0.000000   0.000000  -1.146773
    7  C  1  X    0.000000  -0.000000   0.000000   0.752236   0.000000
    8  C  1  Y    0.000000  -0.000000   0.751384   0.000000   0.000000
    9  C  1  Z   -0.021166   2.794307   0.000000   0.000000  -1.302995
   10  C  1  S   -0.077425  -1.547072   0.000000   0.000000  -2.134214
   11  C  1  X    0.000000  -0.000000   0.000000  -0.143453   0.000000
   12  C  1  Y    0.000000  -0.000000  -0.143167   0.000000   0.000000
   13  C  1  Z   -0.008545  -0.475421   0.000000   0.000000  -0.953973
   14  C  1  S   -0.006987  -0.490695   0.000000   0.000000  -0.105283
   15  C  1  X    0.000000  -0.000000   0.000000  -0.029526   0.000000
   16  C  1  Y    0.000000  -0.000000  -0.029423   0.000000   0.000000
   17  C  1  Z   -0.005723  -0.066933   0.000000   0.000000  -0.022205
   18  C  1 XX    0.206064   0.875051   0.000000   0.000000   0.284541
   19  C  1 YY   -0.147431   0.869043   0.000000   0.000000   0.284682
   20  C  1 ZZ    0.016973   2.510020   0.000000   0.000000  -0.784665
   21  C  1 XY    0.000000  -0.000000   0.000000   0.000000   0.000000
   22  C  1 XZ    0.000000  -0.000000   0.000000   0.621292   0.000000
   23  C  1 YZ    0.000000  -0.000000   0.621384   0.000000   0.000000
   24  O  2  S   -0.000357   0.019182   0.000000   0.000000  -0.013043
   25  O  2  S    0.000154   0.008715   0.000000   0.000000  -0.032265
   26  O  2  X    0.000000  -0.000000   0.000000  -0.036768   0.000000
   27  O  2  Y    0.000000  -0.000000  -0.034467   0.000000   0.000000
   28  O  2  Z    0.000122   0.036147   0.000000   0.000000  -0.327174
   29  O  2  S    0.004320  -0.532631   0.000000   0.000000   0.028477
   30  O  2  X    0.000000  -0.000000   0.000000  -0.004666   0.000000
   31  O  2  Y    0.000000  -0.000000  -0.006191   0.000000   0.000000
   32  O  2  Z   -0.004763   1.108934   0.000000   0.000000  -0.133638
   33  O  2  S    0.004738  -1.825655   0.000000   0.000000   2.694803
   34  O  2  X    0.000000  -0.000000   0.000000  -0.506914   0.000000
   35  O  2  Y    0.000000  -0.000000  -0.505419   0.000000   0.000000
   36  O  2  Z   -0.004416   1.030408   0.000000   0.000000  -1.781445
   37  O  2  S    0.046512   1.716835   0.000000   0.000000   0.810186
   38  O  2  X    0.000000  -0.000000   0.000000   0.215184   0.000000
   39  O  2  Y    0.000000  -0.000000   0.214652   0.000000   0.000000
   40  O  2  Z   -0.016763  -0.771357   0.000000   0.000000  -0.028480
   41  O  2 XX   -0.865604  -0.016996   0.000000   0.000000  -0.645776
   42  O  2 YY    0.871672  -0.022138   0.000000   0.000000  -0.647525
   43  O  2 ZZ    0.003678  -0.457016   0.000000   0.000000   1.210610
   44  O  2 XY    0.000000  -0.000000   0.000000   0.000000   0.000000
   45  O  2 XZ    0.000000  -0.000000   0.000000   1.101598   0.000000
   46  O  2 YZ    0.000000  -0.000000   1.101767   0.000000   0.000000

                     41         42         43         44         45
                    4.9256     4.9331     5.5259     6.4227    26.3365
                     A          A          A          A          A   
    1  C  1  S   -0.000000  -0.000000   0.022011  -0.030418  -2.112420
    2  C  1  S   -0.000000  -0.000000   0.032791  -0.046680   2.571786
    3  C  1  X    0.027488  -0.000000  -0.000000  -0.000000   0.000000
    4  C  1  Y   -0.000000   0.027081  -0.000000  -0.000000   0.000000
    5  C  1  Z   -0.000000  -0.000000  -0.035578   0.036520  -0.035659
    6  C  1  S   -0.000000  -0.000000  -0.599864   0.427927  -1.097165
    7  C  1  X   -0.080844  -0.000000  -0.000000  -0.000000   0.000000
    8  C  1  Y   -0.000000  -0.080184  -0.000000  -0.000000   0.000000
    9  C  1  Z   -0.000000  -0.000000  -1.181040   1.142541   0.051693
   10  C  1  S   -0.000000  -0.000000  -0.059856  -0.061395  -1.173919
   11  C  1  X    0.125528  -0.000000  -0.000000  -0.000000   0.000000
   12  C  1  Y   -0.000000   0.125599  -0.000000  -0.000000   0.000000
   13  C  1  Z   -0.000000  -0.000000  -0.108302  -0.194027  -0.216591
   14  C  1  S   -0.000000  -0.000000   0.537838   0.223493  -0.127806
   15  C  1  X   -0.202467  -0.000000  -0.000000  -0.000000   0.000000
   16  C  1  Y   -0.000000  -0.202189  -0.000000  -0.000000   0.000000
   17  C  1  Z   -0.000000  -0.000000   0.289480   0.157010  -0.056894
   18  C  1 XX   -0.000000  -0.000000   0.129698  -0.187351   0.650964
   19  C  1 YY   -0.000000  -0.000000   0.129748  -0.187953   0.650871
   20  C  1 ZZ   -0.000000  -0.000000  -0.900659   0.967462   0.630044
   21  C  1 XY   -0.000000  -0.000000  -0.000000  -0.000000   0.000000
   22  C  1 XZ   -0.127931  -0.000000  -0.000000  -0.000000   0.000000
   23  C  1 YZ   -0.000000  -0.127028  -0.000000  -0.000000   0.000000
   24  O  2  S   -0.000000  -0.000000  -0.083456  -0.169501   0.009071
   25  O  2  S   -0.000000  -0.000000  -0.281483  -0.630952   0.002968
   26  O  2  X   -1.277347  -0.000000  -0.000000  -0.000000   0.000000
   27  O  2  Y   -0.000000  -1.279101  -0.000000  -0.000000   0.000000
   28  O  2  Z   -0.000000  -0.000000   1.175886  -0.585111   0.031929
   29  O  2  S   -0.000000  -0.000000   1.133450   2.075261  -0.081817
   30  O  2  X    1.579535  -0.000000  -0.000000  -0.000000   0.000000
   31  O  2  Y   -0.000000   1.575897  -0.000000  -0.000000   0.000000
   32  O  2  Z   -0.000000  -0.000000  -2.041213   1.394800  -0.029160
   33  O  2  S   -0.000000  -0.000000   2.168101   0.780982   0.019206
   34  O  2  X   -0.915232  -0.000000  -0.000000  -0.000000   0.000000
   35  O  2  Y   -0.000000  -0.912825  -0.000000  -0.000000   0.000000
   36  O  2  Z   -0.000000  -0.000000   0.151945  -0.043233   0.028890
   37  O  2  S   -0.000000  -0.000000  -1.321985  -0.526954   0.729983
   38  O  2  X    0.444296  -0.000000  -0.000000  -0.000000   0.000000
   39  O  2  Y   -0.000000   0.443180  -0.000000  -0.000000   0.000000
   40  O  2  Z   -0.000000  -0.000000  -0.014643   0.000978  -0.304696
   41  O  2 XX   -0.000000  -0.000000  -0.795139  -1.364526   0.005143
   42  O  2 YY   -0.000000  -0.000000  -0.794839  -1.361971   0.005127
   43  O  2 ZZ   -0.000000  -0.000000  -0.061072  -1.974652   0.091300
   44  O  2 XY   -0.000000  -0.000000  -0.000000  -0.000000   0.000000
   45  O  2 XZ   -0.059294  -0.000000  -0.000000  -0.000000   0.000000
   46  O  2 YZ   -0.000000  -0.057597  -0.000000  -0.000000   0.000000

                     46
                   55.2980
                     A   
    1  C  1  S   -0.015638
    2  C  1  S    0.028637
    3  C  1  X   -0.000000
    4  C  1  Y   -0.000000
    5  C  1  Z   -0.003127
    6  C  1  S   -0.039905
    7  C  1  X   -0.000000
    8  C  1  Y   -0.000000
    9  C  1  Z   -0.142825
   10  C  1  S    0.057021
   11  C  1  X   -0.000000
   12  C  1  Y   -0.000000
   13  C  1  Z    0.078198
   14  C  1  S   -0.110557
   15  C  1  X   -0.000000
   16  C  1  Y   -0.000000
   17  C  1  Z   -0.071658
   18  C  1 XX    0.030968
   19  C  1 YY    0.030977
   20  C  1 ZZ   -0.128382
   21  C  1 XY   -0.000000
   22  C  1 XZ   -0.000000
   23  C  1 YZ   -0.000000
   24  O  2  S   -2.323148
   25  O  2  S    2.720508
   26  O  2  X   -0.000000
   27  O  2  Y   -0.000000
   28  O  2  Z    0.030845
   29  O  2  S   -1.081812
   30  O  2  X   -0.000000
   31  O  2  Y   -0.000000
   32  O  2  Z   -0.133584
   33  O  2  S   -0.448413
   34  O  2  X   -0.000000
   35  O  2  Y   -0.000000
   36  O  2  Z    0.018496
   37  O  2  S    0.253734
   38  O  2  X   -0.000000
   39  O  2  Y   -0.000000
   40  O  2  Z    0.004500
   41  O  2 XX    0.573467
   42  O  2 YY    0.573426
   43  O  2 ZZ    0.635206
   44  O  2 XY   -0.000000
   45  O  2 XZ   -0.000000
   46  O  2 YZ   -0.000000

 LZ VALUE ANALYSIS FOR THE MOS
 ----------------------------------------
 MO     1 (    1) HAS LZ(WEIGHT)= 0.00(100.0%) 
 MO     2 (    2) HAS LZ(WEIGHT)= 0.00(100.0%) 
 MO     3 (    3) HAS LZ(WEIGHT)= 0.00(100.0%) 
 MO     4 (    4) HAS LZ(WEIGHT)= 0.00(100.0%) 
 MO     5 (    5) HAS LZ(WEIGHT)= 0.00(100.0%) 
 MO     6 (    6) HAS LZ(WEIGHT)= 0.00(100.0%) 
 MO     7 (    7) HAS LZ(WEIGHT)= 0.00(100.0%) 
 MO     8 (    8) HAS LZ(WEIGHT)= 0.00(100.0%) 
 MO     9 (    9) HAS LZ(WEIGHT)= 0.00(100.0%) 
 MO    10 (   10) HAS LZ(WEIGHT)= 0.00(100.0%) 
 MO    11 (   11) HAS LZ(WEIGHT)= 0.00(100.0%) 
 MO    12 (   12) HAS LZ(WEIGHT)= 0.00(100.0%) 
 MO    13 (   13) HAS LZ(WEIGHT)= 0.00(100.0%) 
 MO    14 (   14) HAS LZ(WEIGHT)= 0.00(100.0%) 
 MO    15 (   15) HAS LZ(WEIGHT)= 0.00(100.0%) 
 MO    16 (   16) HAS LZ(WEIGHT)= 0.00(100.0%) 
 MO    17 (   17) HAS LZ(WEIGHT)= 0.00(100.0%) 
 MO    18 (   18) HAS LZ(WEIGHT)= 0.00(100.0%) 
 MO    19 (   19) HAS LZ(WEIGHT)= 0.00(100.0%) 
 MO    20 (   20) HAS LZ(WEIGHT)= 0.00(100.0%) 
 MO    21 (   21) HAS LZ(WEIGHT)= 0.00(100.0%) 
 MO    22 (   22) HAS LZ(WEIGHT)= 0.00(100.0%) 
 MO    23 (   23) HAS LZ(WEIGHT)= 0.00(100.0%) 
 MO    24 (   24) HAS LZ(WEIGHT)= 0.00(100.0%) 
 MO    25 (   25) HAS LZ(WEIGHT)= 0.00(100.0%) 
 MO    26 (   26) HAS LZ(WEIGHT)= 0.00(100.0%) 
 MO    27 (   27) HAS LZ(WEIGHT)= 0.00(100.0%) 
 MO    28 (   28) HAS LZ(WEIGHT)= 0.00(100.0%) 
 MO    29 (   29) HAS LZ(WEIGHT)= 0.00(100.0%) 
 MO    30 (   30) HAS LZ(WEIGHT)= 0.00(100.0%) 
 MO    31 (   31) HAS LZ(WEIGHT)= 0.00(100.0%) 
 MO    32 (   32) HAS LZ(WEIGHT)= 0.00(100.0%) 
 MO    33 (   33) HAS LZ(WEIGHT)= 0.00(100.0%) 
 MO    34 (   34) HAS LZ(WEIGHT)= 0.00(100.0%) 
 MO    35 (   35) HAS LZ(WEIGHT)= 0.00(100.0%) 
 MO    36 (   36) HAS LZ(WEIGHT)= 0.00(100.0%) 
 MO    37 (   37) HAS LZ(WEIGHT)= 0.00(100.0%) 
 MO    38 (   38) HAS LZ(WEIGHT)= 0.00(100.0%) 
 MO    39 (   39) HAS LZ(WEIGHT)= 0.00(100.0%) 
 MO    40 (   40) HAS LZ(WEIGHT)= 0.00(100.0%) 
 MO    41 (   41) HAS LZ(WEIGHT)= 0.00(100.0%) 
 MO    42 (   42) HAS LZ(WEIGHT)= 0.00(100.0%) 
 MO    43 (   43) HAS LZ(WEIGHT)= 0.00(100.0%) 
 MO    44 (   44) HAS LZ(WEIGHT)= 0.00(100.0%) 
 MO    45 (   45) HAS LZ(WEIGHT)= 0.00(100.0%) 
 MO    46 (   46) HAS LZ(WEIGHT)= 0.00(100.0%) 

  ----- BETA SET ----- 

          ------------
          EIGENVECTORS
          ------------

                      1          2          3          4          5
                  -19.1968   -10.2901    -1.1324    -0.5299    -0.4572
                     A          A          A          A          A   
    1  C  1  S    0.000030   0.563769  -0.065072   0.071539  -0.000000
    2  C  1  S   -0.000106   0.460122  -0.099384   0.112882  -0.000000
    3  C  1  X   -0.000000   0.000000  -0.000000  -0.000000  -0.000000
    4  C  1  Y   -0.000000   0.000000  -0.000000  -0.000000   0.151460
    5  C  1  Z    0.000022   0.000698   0.111132  -0.068735  -0.000000
    6  C  1  S    0.000269   0.020216   0.247931  -0.330082  -0.000000
    7  C  1  X   -0.000000   0.000000  -0.000000  -0.000000  -0.000000
    8  C  1  Y   -0.000000   0.000000  -0.000000  -0.000000   0.224046
    9  C  1  Z    0.000860   0.000088   0.119721  -0.094693  -0.000000
   10  C  1  S   -0.000435   0.010456   0.077395  -0.268130  -0.000000
   11  C  1  X   -0.000000   0.000000  -0.000000  -0.000000  -0.000000
   12  C  1  Y   -0.000000   0.000000  -0.000000  -0.000000   0.121009
   13  C  1  Z   -0.000405   0.001981   0.008661  -0.035349  -0.000000
   14  C  1  S    0.000280   0.001110   0.021925  -0.006755  -0.000000
   15  C  1  X   -0.000000   0.000000  -0.000000  -0.000000  -0.000000
   16  C  1  Y   -0.000000   0.000000  -0.000000  -0.000000   0.007491
   17  C  1  Z    0.000215   0.000518   0.012268   0.005907  -0.000000
   18  C  1 XX   -0.000158  -0.007858  -0.026634   0.015216  -0.000000
   19  C  1 YY   -0.000172  -0.007515  -0.019690   0.004943  -0.000000
   20  C  1 ZZ    0.000782  -0.007256   0.021126  -0.007910  -0.000000
   21  C  1 XY   -0.000000   0.000000  -0.000000  -0.000000  -0.000000
   22  C  1 XZ   -0.000000   0.000000  -0.000000  -0.000000  -0.000000
   23  C  1 YZ   -0.000000   0.000000  -0.000000  -0.000000   0.054100
   24  O  2  S    0.551846  -0.000195  -0.109875  -0.063194  -0.000000
   25  O  2  S    0.466361  -0.000257  -0.176198  -0.104361  -0.000000
   26  O  2  X   -0.000000   0.000000  -0.000000  -0.000000  -0.000000
   27  O  2  Y   -0.000000   0.000000  -0.000000  -0.000000   0.256429
   28  O  2  Z   -0.001727  -0.000231  -0.087127   0.232603  -0.000000
   29  O  2  S    0.020393   0.000705   0.504434   0.315962  -0.000000
   30  O  2  X   -0.000000   0.000000  -0.000000  -0.000000  -0.000000
   31  O  2  Y   -0.000000   0.000000  -0.000000  -0.000000   0.376036
   32  O  2  Z    0.001181  -0.000504  -0.127473   0.325291  -0.000000
   33  O  2  S    0.001230  -0.000666   0.323632   0.435170  -0.000000
   34  O  2  X   -0.000000   0.000000  -0.000000  -0.000000  -0.000000
   35  O  2  Y   -0.000000   0.000000  -0.000000  -0.000000   0.294423
   36  O  2  Z   -0.000325   0.000125  -0.036743   0.185524  -0.000000
   37  O  2  S   -0.000527  -0.006435  -0.058994   0.097386  -0.000000
   38  O  2  X   -0.000000   0.000000  -0.000000  -0.000000  -0.000000
   39  O  2  Y   -0.000000   0.000000  -0.000000  -0.000000   0.021840
   40  O  2  Z   -0.000022   0.002634   0.011116  -0.002151  -0.000000
   41  O  2 XX   -0.005978  -0.000057  -0.015835   0.003163  -0.000000
   42  O  2 YY   -0.005791  -0.000078  -0.008329   0.009091  -0.000000
   43  O  2 ZZ   -0.006004   0.000019   0.020111  -0.025628  -0.000000
   44  O  2 XY   -0.000000   0.000000  -0.000000  -0.000000  -0.000000
   45  O  2 XZ   -0.000000   0.000000  -0.000000  -0.000000  -0.000000
   46  O  2 YZ   -0.000000   0.000000  -0.000000  -0.000000  -0.026670

                      6          7          8          9         10
                   -0.4258    -0.2580    -0.0225     0.0027     0.0370
                     A          A          A          A          A   
    1  C  1  S   -0.000000  -0.073692  -0.000000   0.000000   0.027323
    2  C  1  S   -0.000000  -0.115413  -0.000000   0.000000   0.042676
    3  C  1  X    0.149062  -0.000000  -0.000000   0.184549  -0.000000
    4  C  1  Y   -0.000000  -0.000000   0.213268   0.000000  -0.000000
    5  C  1  Z   -0.000000  -0.195120  -0.000000   0.000000   0.067517
    6  C  1  S   -0.000000   0.307881  -0.000000   0.000000  -0.177419
    7  C  1  X    0.216855  -0.000000  -0.000000   0.272079  -0.000000
    8  C  1  Y   -0.000000  -0.000000   0.320734   0.000000  -0.000000
    9  C  1  Z   -0.000000  -0.238177  -0.000000   0.000000   0.051710
   10  C  1  S   -0.000000   0.533042  -0.000000   0.000000   0.360378
   11  C  1  X    0.121168  -0.000000  -0.000000   0.483991  -0.000000
   12  C  1  Y   -0.000000  -0.000000   0.545571   0.000000  -0.000000
   13  C  1  Z   -0.000000  -0.171761  -0.000000   0.000000   0.539539
   14  C  1  S   -0.000000   0.128191  -0.000000   0.000000   2.418666
   15  C  1  X    0.009463  -0.000000  -0.000000   0.661855  -0.000000
   16  C  1  Y   -0.000000  -0.000000   0.465370   0.000000  -0.000000
   17  C  1  Z   -0.000000  -0.022263  -0.000000   0.000000   0.655324
   18  C  1 XX   -0.000000   0.008355  -0.000000   0.000000  -0.006965
   19  C  1 YY   -0.000000   0.026766  -0.000000   0.000000  -0.010676
   20  C  1 ZZ   -0.000000  -0.022951  -0.000000   0.000000  -0.011040
   21  C  1 XY   -0.000000  -0.000000  -0.000000   0.000000  -0.000000
   22  C  1 XZ    0.054510  -0.000000  -0.000000  -0.018266  -0.000000
   23  C  1 YZ   -0.000000  -0.000000  -0.017732   0.000000  -0.000000
   24  O  2  S   -0.000000   0.010882  -0.000000   0.000000   0.016384
   25  O  2  S   -0.000000   0.017843  -0.000000   0.000000   0.026645
   26  O  2  X    0.255258  -0.000000  -0.000000  -0.165702  -0.000000
   27  O  2  Y   -0.000000  -0.000000  -0.178408   0.000000  -0.000000
   28  O  2  Z   -0.000000   0.120427  -0.000000   0.000000  -0.036217
   29  O  2  S   -0.000000  -0.061791  -0.000000   0.000000  -0.102301
   30  O  2  X    0.372690  -0.000000  -0.000000  -0.247563  -0.000000
   31  O  2  Y   -0.000000  -0.000000  -0.265216   0.000000  -0.000000
   32  O  2  Z   -0.000000   0.174888  -0.000000   0.000000  -0.062959
   33  O  2  S   -0.000000  -0.048312  -0.000000   0.000000  -0.157578
   34  O  2  X    0.299847  -0.000000  -0.000000  -0.283322  -0.000000
   35  O  2  Y   -0.000000  -0.000000  -0.318835   0.000000  -0.000000
   36  O  2  Z   -0.000000   0.130697  -0.000000   0.000000   0.018954
   37  O  2  S   -0.000000   0.017957  -0.000000   0.000000  -2.106632
   38  O  2  X    0.028849  -0.000000  -0.000000  -0.401088  -0.000000
   39  O  2  Y   -0.000000  -0.000000  -0.339121   0.000000  -0.000000
   40  O  2  Z   -0.000000   0.022023  -0.000000   0.000000   0.522283
   41  O  2 XX   -0.000000   0.005496  -0.000000   0.000000  -0.002894
   42  O  2 YY   -0.000000   0.005159  -0.000000   0.000000  -0.003983
   43  O  2 ZZ   -0.000000  -0.014431  -0.000000   0.000000  -0.000501
   44  O  2 XY   -0.000000  -0.000000  -0.000000   0.000000  -0.000000
   45  O  2 XZ   -0.027187  -0.000000  -0.000000  -0.008674  -0.000000
   46  O  2 YZ   -0.000000  -0.000000  -0.010224   0.000000  -0.000000

                     11         12         13         14         15
                    0.0565     0.0729     0.0816     0.1855     0.2149
                     A          A          A          A          A   
    1  C  1  S   -0.026396  -0.000000  -0.000000  -0.022668  -0.000000
    2  C  1  S   -0.044848  -0.000000  -0.000000  -0.047198  -0.000000
    3  C  1  X   -0.000000  -0.000000  -0.189155  -0.000000  -0.000000
    4  C  1  Y   -0.000000  -0.162444  -0.000000  -0.000000   0.012307
    5  C  1  Z   -0.042222  -0.000000  -0.000000   0.009075  -0.000000
    6  C  1  S    0.115724  -0.000000  -0.000000  -0.010026  -0.000000
    7  C  1  X   -0.000000  -0.000000  -0.242848  -0.000000  -0.000000
    8  C  1  Y   -0.000000  -0.215972  -0.000000  -0.000000   0.080257
    9  C  1  Z   -0.020563  -0.000000  -0.000000  -0.015491  -0.000000
   10  C  1  S    0.423426  -0.000000  -0.000000   2.123756  -0.000000
   11  C  1  X   -0.000000  -0.000000  -0.654377  -0.000000  -0.000000
   12  C  1  Y   -0.000000  -0.538646  -0.000000  -0.000000  -0.197482
   13  C  1  Z   -0.164301  -0.000000  -0.000000   0.106592  -0.000000
   14  C  1  S   -0.132519  -0.000000  -0.000000   0.270624  -0.000000
   15  C  1  X   -0.000000  -0.000000   1.097996  -0.000000  -0.000000
   16  C  1  Y   -0.000000   1.175490  -0.000000  -0.000000  -1.101294
   17  C  1  Z    1.343530  -0.000000  -0.000000  -0.503742  -0.000000
   18  C  1 XX   -0.000622  -0.000000  -0.000000  -0.062417  -0.000000
   19  C  1 YY    0.005740  -0.000000  -0.000000  -0.062406  -0.000000
   20  C  1 ZZ   -0.029014  -0.000000  -0.000000  -0.030413  -0.000000
   21  C  1 XY   -0.000000  -0.000000  -0.000000  -0.000000  -0.000000
   22  C  1 XZ   -0.000000  -0.000000  -0.013245  -0.000000  -0.000000
   23  C  1 YZ   -0.000000  -0.015092  -0.000000  -0.000000  -0.003235
   24  O  2  S    0.016815  -0.000000  -0.000000   0.006490  -0.000000
   25  O  2  S    0.027378  -0.000000  -0.000000   0.012179  -0.000000
   26  O  2  X   -0.000000  -0.000000   0.060552  -0.000000  -0.000000
   27  O  2  Y   -0.000000   0.038008  -0.000000  -0.000000  -0.130188
   28  O  2  Z    0.009618  -0.000000  -0.000000  -0.057489  -0.000000
   29  O  2  S   -0.105018  -0.000000  -0.000000  -0.030766  -0.000000
   30  O  2  X   -0.000000  -0.000000   0.075794  -0.000000  -0.000000
   31  O  2  Y   -0.000000   0.043522  -0.000000  -0.000000  -0.140987
   32  O  2  Z    0.012323  -0.000000  -0.000000  -0.063862  -0.000000
   33  O  2  S   -0.071414  -0.000000  -0.000000  -0.159568  -0.000000
   34  O  2  X   -0.000000  -0.000000   0.207012  -0.000000  -0.000000
   35  O  2  Y   -0.000000   0.161534  -0.000000  -0.000000  -0.515987
   36  O  2  Z    0.035681  -0.000000  -0.000000  -0.201515  -0.000000
   37  O  2  S   -0.492942  -0.000000  -0.000000  -1.359307  -0.000000
   38  O  2  X   -0.000000  -0.000000   0.025105  -0.000000  -0.000000
   39  O  2  Y   -0.000000  -0.043623  -0.000000  -0.000000   1.987238
   40  O  2  Z   -0.169744  -0.000000  -0.000000   2.280766  -0.000000
   41  O  2 XX   -0.001700  -0.000000  -0.000000  -0.006055  -0.000000
   42  O  2 YY   -0.002731  -0.000000  -0.000000  -0.007273  -0.000000
   43  O  2 ZZ   -0.004607  -0.000000  -0.000000   0.029415  -0.000000
   44  O  2 XY   -0.000000  -0.000000  -0.000000  -0.000000  -0.000000
   45  O  2 XZ   -0.000000  -0.000000   0.015506  -0.000000  -0.000000
   46  O  2 YZ   -0.000000   0.013818  -0.000000  -0.000000   0.014135

                     16         17         18         19         20
                    0.2205     0.2737     0.3981     0.5269     0.5477
                     A          A          A          A          A   
    1  C  1  S    0.000000   0.013585   0.053176   0.000000  -0.000000
    2  C  1  S    0.000000   0.027510   0.088736   0.000000  -0.000000
    3  C  1  X    0.017880  -0.000000  -0.000000   0.000000  -0.260083
    4  C  1  Y    0.000000  -0.000000  -0.000000  -0.256914  -0.000000
    5  C  1  Z    0.000000   0.040828  -0.000453   0.000000  -0.000000
    6  C  1  S    0.000000  -0.012144  -0.264717   0.000000  -0.000000
    7  C  1  X    0.087641  -0.000000  -0.000000   0.000000  -0.923023
    8  C  1  Y    0.000000  -0.000000  -0.000000  -0.909525  -0.000000
    9  C  1  Z    0.000000   0.087102  -0.022405   0.000000  -0.000000
   10  C  1  S    0.000000  -2.246773  -4.849840   0.000000  -0.000000
   11  C  1  X   -0.173589  -0.000000  -0.000000   0.000000   1.730486
   12  C  1  Y    0.000000  -0.000000  -0.000000   1.746830  -0.000000
   13  C  1  Z    0.000000  -0.389604  -3.318968   0.000000  -0.000000
   14  C  1  S    0.000000  -3.128559  -1.794180   0.000000  -0.000000
   15  C  1  X   -1.094341  -0.000000  -0.000000   0.000000  -0.562185
   16  C  1  Y    0.000000  -0.000000  -0.000000  -0.581871  -0.000000
   17  C  1  Z    0.000000  -1.597073   0.273365   0.000000  -0.000000
   18  C  1 XX    0.000000   0.044455  -0.000684   0.000000  -0.000000
   19  C  1 YY    0.000000   0.046334  -0.020209   0.000000  -0.000000
   20  C  1 ZZ    0.000000  -0.000440  -0.003583   0.000000  -0.000000
   21  C  1 XY    0.000000  -0.000000  -0.000000   0.000000  -0.000000
   22  C  1 XZ   -0.003955  -0.000000  -0.000000   0.000000  -0.039212
   23  C  1 YZ    0.000000  -0.000000  -0.000000  -0.038741  -0.000000
   24  O  2  S    0.000000   0.042278  -0.023878   0.000000  -0.000000
   25  O  2  S    0.000000   0.076873  -0.044849   0.000000  -0.000000
   26  O  2  X   -0.135560  -0.000000  -0.000000   0.000000   0.029758
   27  O  2  Y    0.000000  -0.000000  -0.000000   0.027734  -0.000000
   28  O  2  Z    0.000000  -0.033432  -0.121584   0.000000  -0.000000
   29  O  2  S    0.000000  -0.199065   0.053883   0.000000  -0.000000
   30  O  2  X   -0.144935  -0.000000  -0.000000   0.000000   0.070017
   31  O  2  Y    0.000000  -0.000000  -0.000000   0.068751  -0.000000
   32  O  2  Z    0.000000   0.015275  -0.165466   0.000000  -0.000000
   33  O  2  S    0.000000  -1.196899   2.073140   0.000000  -0.000000
   34  O  2  X   -0.542865  -0.000000  -0.000000   0.000000  -0.122468
   35  O  2  Y    0.000000  -0.000000  -0.000000  -0.133752  -0.000000
   36  O  2  Z    0.000000  -0.382270  -1.116482   0.000000  -0.000000
   37  O  2  S    0.000000   6.503059   4.868270   0.000000  -0.000000
   38  O  2  X    1.984186  -0.000000  -0.000000   0.000000  -0.286177
   39  O  2  Y    0.000000  -0.000000  -0.000000  -0.282355  -0.000000
   40  O  2  Z    0.000000  -0.929756  -1.676735   0.000000  -0.000000
   41  O  2 XX    0.000000   0.029723  -0.027184   0.000000  -0.000000
   42  O  2 YY    0.000000   0.027441  -0.025777   0.000000  -0.000000
   43  O  2 ZZ    0.000000   0.012468  -0.008537   0.000000  -0.000000
   44  O  2 XY    0.000000  -0.000000  -0.000000   0.000000  -0.000000
   45  O  2 XZ    0.013784  -0.000000  -0.000000   0.000000   0.020892
   46  O  2 YZ    0.000000  -0.000000  -0.000000   0.019802  -0.000000

                     21         22         23         24         25
                    0.6704     0.8130     1.0348     1.0374     1.0528
                     A          A          A          A          A   
    1  C  1  S    0.041522   0.096823   0.000000   0.046086   0.000000
    2  C  1  S    0.037415   0.122216   0.000000   0.079828   0.000000
    3  C  1  X    0.000000   0.000000   0.000000   0.000000   0.013423
    4  C  1  Y    0.000000   0.000000   0.011632   0.000000   0.000000
    5  C  1  Z    0.264644  -0.176456   0.000000  -0.178173   0.000000
    6  C  1  S   -0.731343  -1.943681   0.000000  -0.247859   0.000000
    7  C  1  X    0.000000   0.000000   0.000000   0.000000  -0.163537
    8  C  1  Y    0.000000   0.000000  -0.165914   0.000000   0.000000
    9  C  1  Z    1.016481  -0.734568   0.000000   0.265155   0.000000
   10  C  1  S    5.161551   4.511083   0.000000   5.622470   0.000000
   11  C  1  X    0.000000   0.000000   0.000000   0.000000  -0.215309
   12  C  1  Y    0.000000   0.000000  -0.210015   0.000000   0.000000
   13  C  1  Z    0.614809   1.253368   0.000000   2.612610   0.000000
   14  C  1  S    0.418866   0.771020   0.000000   1.057403   0.000000
   15  C  1  X    0.000000   0.000000   0.000000   0.000000   0.535223
   16  C  1  Y    0.000000   0.000000   0.540434   0.000000   0.000000
   17  C  1  Z    0.506802   0.002223   0.000000   0.256589   0.000000
   18  C  1 XX   -0.124759  -0.288570   0.000000  -0.158060   0.000000
   19  C  1 YY   -0.117220  -0.297620   0.000000  -0.196551   0.000000
   20  C  1 ZZ   -0.214857  -0.302149   0.000000   0.362378   0.000000
   21  C  1 XY    0.000000   0.000000   0.000000   0.000000   0.000000
   22  C  1 XZ    0.000000   0.000000   0.000000   0.000000  -0.083117
   23  C  1 YZ    0.000000   0.000000  -0.073880   0.000000   0.000000
   24  O  2  S    0.021520  -0.026211   0.000000  -0.013792   0.000000
   25  O  2  S    0.038279  -0.043273   0.000000  -0.018108   0.000000
   26  O  2  X    0.000000   0.000000   0.000000   0.000000  -0.256355
   27  O  2  Y    0.000000   0.000000  -0.255802   0.000000   0.000000
   28  O  2  Z    0.109378  -0.049848   0.000000  -0.278651   0.000000
   29  O  2  S   -0.070359   0.127364   0.000000   0.307500   0.000000
   30  O  2  X    0.000000   0.000000   0.000000   0.000000  -0.836279
   31  O  2  Y    0.000000   0.000000  -0.832316   0.000000   0.000000
   32  O  2  Z    0.157779  -0.055748   0.000000  -0.658266   0.000000
   33  O  2  S   -1.312278   0.196850   0.000000  -2.767226   0.000000
   34  O  2  X    0.000000   0.000000   0.000000   0.000000   1.938361
   35  O  2  Y    0.000000   0.000000   1.939501   0.000000   0.000000
   36  O  2  Z    1.184081  -1.165579   0.000000   2.822676   0.000000
   37  O  2  S   -3.297937  -3.398333   0.000000  -4.159152   0.000000
   38  O  2  X    0.000000   0.000000   0.000000   0.000000  -1.237037
   39  O  2  Y    0.000000   0.000000  -1.249363   0.000000   0.000000
   40  O  2  Z    1.025114   2.014694   0.000000   0.641142   0.000000
   41  O  2 XX    0.002343   0.028087   0.000000   0.059755   0.000000
   42  O  2 YY   -0.000380   0.033470   0.000000   0.056497   0.000000
   43  O  2 ZZ    0.026935  -0.041754   0.000000  -0.024252   0.000000
   44  O  2 XY    0.000000   0.000000   0.000000   0.000000   0.000000
   45  O  2 XZ    0.000000   0.000000   0.000000   0.000000   0.029662
   46  O  2 YZ    0.000000   0.000000   0.028904   0.000000   0.000000

                     26         27         28         29         30
                    1.2894     1.2896     1.3274     1.4284     1.4578
                     A          A          A          A          A   
    1  C  1  S   -0.000000   0.004582   0.003103   0.000000   0.000000
    2  C  1  S   -0.000000   0.008415  -0.000351   0.000000   0.000000
    3  C  1  X   -0.000000   0.000000  -0.000000   0.000000  -0.040347
    4  C  1  Y   -0.000000   0.000000  -0.000000  -0.039237   0.000000
    5  C  1  Z   -0.000000  -0.006279   0.027029   0.000000   0.000000
    6  C  1  S   -0.000000  -0.036237  -0.410429   0.000000   0.000000
    7  C  1  X   -0.000000   0.000000  -0.000000   0.000000  -0.044694
    8  C  1  Y   -0.000000   0.000000  -0.000000  -0.042110   0.000000
    9  C  1  Z   -0.000000  -0.019196  -0.506808   0.000000   0.000000
   10  C  1  S   -0.000000  -0.020861  -1.279412   0.000000   0.000000
   11  C  1  X   -0.000000   0.000000  -0.000000   0.000000   0.306836
   12  C  1  Y   -0.000000   0.000000  -0.000000   0.310158   0.000000
   13  C  1  Z   -0.000000  -0.020661  -1.065536   0.000000   0.000000
   14  C  1  S   -0.000000   0.035614   1.218437   0.000000   0.000000
   15  C  1  X   -0.000000   0.000000  -0.000000   0.000000  -0.104227
   16  C  1  Y   -0.000000   0.000000  -0.000000  -0.108707   0.000000
   17  C  1  Z   -0.000000   0.024629   0.771417   0.000000   0.000000
   18  C  1 XX   -0.000000  -0.839088   0.067123   0.000000   0.000000
   19  C  1 YY   -0.000000   0.864111   0.023821   0.000000   0.000000
   20  C  1 ZZ   -0.000000  -0.014747  -0.318390   0.000000   0.000000
   21  C  1 XY    0.984210   0.000000  -0.000000   0.000000   0.000000
   22  C  1 XZ   -0.000000   0.000000  -0.000000   0.000000   1.036275
   23  C  1 YZ   -0.000000   0.000000  -0.000000   1.037704   0.000000
   24  O  2  S   -0.000000   0.001286   0.101494   0.000000   0.000000
   25  O  2  S   -0.000000   0.001458   0.134657   0.000000   0.000000
   26  O  2  X   -0.000000   0.000000  -0.000000   0.000000  -0.078521
   27  O  2  Y   -0.000000   0.000000  -0.000000  -0.075769   0.000000
   28  O  2  Z   -0.000000  -0.011677  -0.053598   0.000000   0.000000
   29  O  2  S   -0.000000  -0.023135  -1.605060   0.000000   0.000000
   30  O  2  X   -0.000000   0.000000  -0.000000   0.000000  -0.174714
   31  O  2  Y   -0.000000   0.000000  -0.000000  -0.168199   0.000000
   32  O  2  Z   -0.000000  -0.036331  -0.320423   0.000000   0.000000
   33  O  2  S   -0.000000   0.112190   4.960654   0.000000   0.000000
   34  O  2  X   -0.000000   0.000000  -0.000000   0.000000  -0.418222
   35  O  2  Y   -0.000000   0.000000  -0.000000  -0.434885   0.000000
   36  O  2  Z   -0.000000   0.024065  -0.589362   0.000000   0.000000
   37  O  2  S   -0.000000  -0.080605  -2.569125   0.000000   0.000000
   38  O  2  X   -0.000000   0.000000  -0.000000   0.000000   0.116232
   39  O  2  Y   -0.000000   0.000000  -0.000000   0.125642   0.000000
   40  O  2  Z   -0.000000  -0.012746  -0.069452   0.000000   0.000000
   41  O  2 XX   -0.000000  -0.084924  -0.204449   0.000000   0.000000
   42  O  2 YY   -0.000000   0.080999  -0.211089   0.000000   0.000000
   43  O  2 ZZ   -0.000000  -0.005984  -0.205564   0.000000   0.000000
   44  O  2 XY    0.095804   0.000000  -0.000000   0.000000   0.000000
   45  O  2 XZ   -0.000000   0.000000  -0.000000   0.000000  -0.139118
   46  O  2 YZ   -0.000000   0.000000  -0.000000  -0.138331   0.000000

                     31         32         33         34         35
                    2.0570     2.6218     2.6524     2.8157     2.8157
                     A          A          A          A          A   
    1  C  1  S   -0.019987   0.000000  -0.000000  -0.001127  -0.000000
    2  C  1  S   -0.047792   0.000000  -0.000000  -0.002368  -0.000000
    3  C  1  X    0.000000   0.000000  -1.281387  -0.000000  -0.000000
    4  C  1  Y    0.000000  -1.281615  -0.000000  -0.000000  -0.000000
    5  C  1  Z    0.465234   0.000000  -0.000000   0.009335  -0.000000
    6  C  1  S   -0.169156   0.000000  -0.000000   0.019531  -0.000000
    7  C  1  X    0.000000   0.000000   1.497091  -0.000000  -0.000000
    8  C  1  Y    0.000000   1.500368  -0.000000  -0.000000  -0.000000
    9  C  1  Z   -0.008477   0.000000  -0.000000   0.009354  -0.000000
   10  C  1  S    2.679076   0.000000  -0.000000   0.032172  -0.000000
   11  C  1  X    0.000000   0.000000  -0.889594  -0.000000  -0.000000
   12  C  1  Y    0.000000  -0.894889  -0.000000  -0.000000  -0.000000
   13  C  1  Z    1.467982   0.000000  -0.000000   0.018301  -0.000000
   14  C  1  S    0.548491   0.000000  -0.000000   0.002807  -0.000000
   15  C  1  X    0.000000   0.000000   0.201854  -0.000000  -0.000000
   16  C  1  Y    0.000000   0.203444  -0.000000  -0.000000  -0.000000
   17  C  1  Z   -0.065436   0.000000  -0.000000  -0.000592  -0.000000
   18  C  1 XX   -0.718727   0.000000  -0.000000   0.180002  -0.000000
   19  C  1 YY   -0.693479   0.000000  -0.000000  -0.188707  -0.000000
   20  C  1 ZZ    1.258573   0.000000  -0.000000   0.008950  -0.000000
   21  C  1 XY    0.000000   0.000000  -0.000000  -0.000000  -0.212894
   22  C  1 XZ    0.000000   0.000000  -0.123800  -0.000000  -0.000000
   23  C  1 YZ    0.000000  -0.122001  -0.000000  -0.000000  -0.000000
   24  O  2  S    0.039206   0.000000  -0.000000   0.001586  -0.000000
   25  O  2  S    0.055968   0.000000  -0.000000   0.003164  -0.000000
   26  O  2  X    0.000000   0.000000  -0.016199  -0.000000  -0.000000
   27  O  2  Y    0.000000  -0.015898  -0.000000  -0.000000  -0.000000
   28  O  2  Z    0.150168   0.000000  -0.000000   0.003085  -0.000000
   29  O  2  S   -0.634775   0.000000  -0.000000  -0.010504  -0.000000
   30  O  2  X    0.000000   0.000000  -0.055298  -0.000000  -0.000000
   31  O  2  Y    0.000000  -0.055394  -0.000000  -0.000000  -0.000000
   32  O  2  Z    0.682669   0.000000  -0.000000   0.002209  -0.000000
   33  O  2  S   -0.899298   0.000000  -0.000000  -0.038913  -0.000000
   34  O  2  X    0.000000   0.000000   0.040501  -0.000000  -0.000000
   35  O  2  Y    0.000000   0.039772  -0.000000  -0.000000  -0.000000
   36  O  2  Z    0.025563   0.000000  -0.000000   0.024573  -0.000000
   37  O  2  S   -1.896446   0.000000  -0.000000  -0.013949  -0.000000
   38  O  2  X    0.000000   0.000000   0.139935  -0.000000  -0.000000
   39  O  2  Y    0.000000   0.141275  -0.000000  -0.000000  -0.000000
   40  O  2  Z    0.785551   0.000000  -0.000000   0.001614  -0.000000
   41  O  2 XX   -0.125573   0.000000  -0.000000  -0.857693  -0.000000
   42  O  2 YY   -0.128806   0.000000  -0.000000   0.878299  -0.000000
   43  O  2 ZZ   -0.002578   0.000000  -0.000000  -0.012571  -0.000000
   44  O  2 XY    0.000000   0.000000  -0.000000  -0.000000   1.002404
   45  O  2 XZ    0.000000   0.000000  -0.204096  -0.000000  -0.000000
   46  O  2 YZ    0.000000  -0.202352  -0.000000  -0.000000  -0.000000

                     36         37         38         39         40
                    2.8492     3.2204     3.3704     3.3978     3.6982
                     A          A          A          A          A   
    1  C  1  S   -0.139856   0.101269   0.000000   0.000000   0.046728
    2  C  1  S   -0.469065   0.410003   0.000000   0.000000   0.107178
    3  C  1  X   -0.000000   0.000000   0.000000  -0.348819   0.000000
    4  C  1  Y   -0.000000   0.000000  -0.346841   0.000000   0.000000
    5  C  1  Z   -0.858161  -1.025404   0.000000   0.000000  -0.106569
    6  C  1  S    1.378389  -0.630378   0.000000   0.000000  -1.145415
    7  C  1  X   -0.000000   0.000000   0.000000   0.751558   0.000000
    8  C  1  Y   -0.000000   0.000000   0.748969   0.000000   0.000000
    9  C  1  Z    1.308877   2.785744   0.000000   0.000000  -1.308423
   10  C  1  S    3.511427  -1.488498   0.000000   0.000000  -2.150174
   11  C  1  X   -0.000000   0.000000   0.000000  -0.140595   0.000000
   12  C  1  Y   -0.000000   0.000000  -0.139741   0.000000   0.000000
   13  C  1  Z    0.332821  -0.448056   0.000000   0.000000  -0.959679
   14  C  1  S    0.143881  -0.480616   0.000000   0.000000  -0.107978
   15  C  1  X   -0.000000   0.000000   0.000000  -0.030396   0.000000
   16  C  1  Y   -0.000000   0.000000  -0.030582   0.000000   0.000000
   17  C  1  Z    0.213944  -0.068019   0.000000   0.000000  -0.022348
   18  C  1 XX   -1.326589   0.858780   0.000000   0.000000   0.294489
   19  C  1 YY   -1.319355   0.857474   0.000000   0.000000   0.289624
   20  C  1 ZZ   -0.689055   2.525638   0.000000   0.000000  -0.795801
   21  C  1 XY   -0.000000   0.000000   0.000000   0.000000   0.000000
   22  C  1 XZ   -0.000000   0.000000   0.000000   0.630796   0.000000
   23  C  1 YZ   -0.000000   0.000000   0.630191   0.000000   0.000000
   24  O  2  S    0.011317   0.019659   0.000000   0.000000  -0.013624
   25  O  2  S    0.013602   0.009769   0.000000   0.000000  -0.033498
   26  O  2  X   -0.000000   0.000000   0.000000  -0.037487   0.000000
   27  O  2  Y   -0.000000   0.000000  -0.036400   0.000000   0.000000
   28  O  2  Z    0.013106   0.038589   0.000000   0.000000  -0.332756
   29  O  2  S   -0.209262  -0.542097   0.000000   0.000000   0.039438
   30  O  2  X   -0.000000   0.000000   0.000000  -0.005611   0.000000
   31  O  2  Y   -0.000000   0.000000  -0.006211   0.000000   0.000000
   32  O  2  Z    0.274863   1.113726   0.000000   0.000000  -0.138046
   33  O  2  S   -0.716872  -1.836878   0.000000   0.000000   2.696018
   34  O  2  X   -0.000000   0.000000   0.000000  -0.507649   0.000000
   35  O  2  Y   -0.000000   0.000000  -0.507893   0.000000   0.000000
   36  O  2  Z    0.324756   1.027523   0.000000   0.000000  -1.778445
   37  O  2  S   -1.735634   1.677075   0.000000   0.000000   0.820730
   38  O  2  X   -0.000000   0.000000   0.000000   0.215250   0.000000
   39  O  2  Y   -0.000000   0.000000   0.215277   0.000000   0.000000
   40  O  2  Z    0.694168  -0.753670   0.000000   0.000000  -0.033508
   41  O  2 XX   -0.057260  -0.024802   0.000000   0.000000  -0.657333
   42  O  2 YY   -0.051871  -0.019271   0.000000   0.000000  -0.634901
   43  O  2 ZZ   -0.015227  -0.451196   0.000000   0.000000   1.208584
   44  O  2 XY   -0.000000   0.000000   0.000000   0.000000   0.000000
   45  O  2 XZ   -0.000000   0.000000   0.000000   1.100006   0.000000
   46  O  2 YZ   -0.000000   0.000000   1.100522   0.000000   0.000000

                     41         42         43         44         45
                    4.9352     4.9634     5.5485     6.4481    26.3774
                     A          A          A          A          A   
    1  C  1  S   -0.000000  -0.000000   0.021863  -0.030486  -2.112201
    2  C  1  S   -0.000000  -0.000000   0.032404  -0.046609   2.572277
    3  C  1  X   -0.000000   0.027762   0.000000  -0.000000   0.000000
    4  C  1  Y    0.027353  -0.000000   0.000000  -0.000000   0.000000
    5  C  1  Z   -0.000000  -0.000000  -0.035328   0.036091  -0.035214
    6  C  1  S   -0.000000  -0.000000  -0.598586   0.432436  -1.099219
    7  C  1  X   -0.000000  -0.081939   0.000000  -0.000000   0.000000
    8  C  1  Y   -0.080667  -0.000000   0.000000  -0.000000   0.000000
    9  C  1  Z   -0.000000  -0.000000  -1.180496   1.154783   0.052232
   10  C  1  S   -0.000000  -0.000000  -0.068649  -0.055746  -1.173476
   11  C  1  X   -0.000000   0.125524   0.000000  -0.000000   0.000000
   12  C  1  Y    0.125538  -0.000000   0.000000  -0.000000   0.000000
   13  C  1  Z   -0.000000  -0.000000  -0.113596  -0.190084  -0.216761
   14  C  1  S   -0.000000  -0.000000   0.536721   0.220180  -0.127915
   15  C  1  X   -0.000000  -0.201164   0.000000  -0.000000   0.000000
   16  C  1  Y   -0.201982  -0.000000   0.000000  -0.000000   0.000000
   17  C  1  Z   -0.000000  -0.000000   0.289675   0.154911  -0.056822
   18  C  1 XX   -0.000000  -0.000000   0.130935  -0.189910   0.651476
   19  C  1 YY   -0.000000  -0.000000   0.130456  -0.190045   0.651587
   20  C  1 ZZ   -0.000000  -0.000000  -0.903899   0.980689   0.630700
   21  C  1 XY   -0.000000  -0.000000   0.000000  -0.000000   0.000000
   22  C  1 XZ   -0.000000  -0.130512   0.000000  -0.000000   0.000000
   23  C  1 YZ   -0.129529  -0.000000   0.000000  -0.000000   0.000000
   24  O  2  S   -0.000000  -0.000000  -0.084452  -0.169220   0.009087
   25  O  2  S   -0.000000  -0.000000  -0.284684  -0.629532   0.002942
   26  O  2  X   -0.000000  -1.279135   0.000000  -0.000000   0.000000
   27  O  2  Y   -1.278976  -0.000000   0.000000  -0.000000   0.000000
   28  O  2  Z   -0.000000  -0.000000   1.172599  -0.590002   0.031919
   29  O  2  S   -0.000000  -0.000000   1.147102   2.069500  -0.081828
   30  O  2  X   -0.000000   1.575359   0.000000  -0.000000   0.000000
   31  O  2  Y    1.576129  -0.000000   0.000000  -0.000000   0.000000
   32  O  2  Z   -0.000000  -0.000000  -2.036647   1.407551  -0.029046
   33  O  2  S   -0.000000  -0.000000   2.176615   0.759030   0.018875
   34  O  2  X   -0.000000  -0.908680   0.000000  -0.000000   0.000000
   35  O  2  Y   -0.911613  -0.000000   0.000000  -0.000000   0.000000
   36  O  2  Z   -0.000000  -0.000000   0.146652  -0.039203   0.029146
   37  O  2  S   -0.000000  -0.000000  -1.317333  -0.519929   0.729928
   38  O  2  X   -0.000000   0.440670   0.000000  -0.000000   0.000000
   39  O  2  Y    0.442581  -0.000000   0.000000  -0.000000   0.000000
   40  O  2  Z   -0.000000  -0.000000  -0.015514   0.000966  -0.304681
   41  O  2 XX   -0.000000  -0.000000  -0.803697  -1.359055   0.005106
   42  O  2 YY   -0.000000  -0.000000  -0.800590  -1.357727   0.005107
   43  O  2 ZZ   -0.000000  -0.000000  -0.067088  -1.977282   0.091258
   44  O  2 XY   -0.000000  -0.000000   0.000000  -0.000000   0.000000
   45  O  2 XZ   -0.000000  -0.059288   0.000000  -0.000000   0.000000
   46  O  2 YZ   -0.058603  -0.000000   0.000000  -0.000000   0.000000

                     46
                   55.3090
                     A   
    1  C  1  S   -0.015652
    2  C  1  S    0.028655
    3  C  1  X   -0.000000
    4  C  1  Y   -0.000000
    5  C  1  Z   -0.003119
    6  C  1  S   -0.039956
    7  C  1  X   -0.000000
    8  C  1  Y   -0.000000
    9  C  1  Z   -0.142940
   10  C  1  S    0.057025
   11  C  1  X   -0.000000
   12  C  1  Y   -0.000000
   13  C  1  Z    0.078190
   14  C  1  S   -0.110526
   15  C  1  X   -0.000000
   16  C  1  Y   -0.000000
   17  C  1  Z   -0.071643
   18  C  1 XX    0.031007
   19  C  1 YY    0.031002
   20  C  1 ZZ   -0.128520
   21  C  1 XY   -0.000000
   22  C  1 XZ   -0.000000
   23  C  1 YZ   -0.000000
   24  O  2  S   -2.323085
   25  O  2  S    2.720605
   26  O  2  X   -0.000000
   27  O  2  Y   -0.000000
   28  O  2  Z    0.030866
   29  O  2  S   -1.082067
   30  O  2  X   -0.000000
   31  O  2  Y   -0.000000
   32  O  2  Z   -0.133676
   33  O  2  S   -0.448287
   34  O  2  X   -0.000000
   35  O  2  Y   -0.000000
   36  O  2  Z    0.018468
   37  O  2  S    0.253659
   38  O  2  X   -0.000000
   39  O  2  Y   -0.000000
   40  O  2  Z    0.004512
   41  O  2 XX    0.573499
   42  O  2 YY    0.573549
   43  O  2 ZZ    0.635339
   44  O  2 XY   -0.000000
   45  O  2 XZ   -0.000000
   46  O  2 YZ   -0.000000
 ...... END OF UHF CALCULATION ......
 STEP CPU TIME =     1.83 TOTAL CPU TIME =          1.9 (      0.0 MIN)
 TOTAL WALL CLOCK TIME=          1.9 SECONDS, CPU UTILIZATION IS    99.47%

     ---------------------------------------------------------------------
     PROPERTIES FOR THE B3LYP    DFT FUNCTIONAL (UHF  TYPE) DENSITY MATRIX
     ---------------------------------------------------------------------

          -----------------
          ENERGY COMPONENTS
          -----------------

         WAVEFUNCTION NORMALIZATION =       1.0000000000

                ONE ELECTRON ENERGY =    -198.2276416543
                TWO ELECTRON ENERGY =      62.6396839815
           NUCLEAR REPULSION ENERGY =      22.5141889413
                                      ------------------
                       TOTAL ENERGY =    -113.0737687316

 ELECTRON-ELECTRON POTENTIAL ENERGY =      62.6396839815
  NUCLEUS-ELECTRON POTENTIAL ENERGY =    -311.2298278887
   NUCLEUS-NUCLEUS POTENTIAL ENERGY =      22.5141889413
                                      ------------------
             TOTAL POTENTIAL ENERGY =    -226.0759549660
               TOTAL KINETIC ENERGY =     113.0021862344
                 VIRIAL RATIO (V/T) =       2.0006334612

          ---------------------------------------
          MULLIKEN AND LOWDIN POPULATION ANALYSES
          ---------------------------------------

     ATOMIC MULLIKEN POPULATION IN EACH MOLECULAR ORBITAL
        ALPHA ORBITALS

                      1          2          3          4          5

                  1.000000   1.000000   1.000000   1.000000   1.000000

    1             0.000144   1.000885   0.300736   0.456127   0.359464
    2             0.999856  -0.000885   0.699264   0.543873   0.640536

                      6          7          8

                  1.000000   1.000000   1.000000

    1             0.663852   0.360469   0.714130
    2             0.336148   0.639531   0.285870

     ATOMIC MULLIKEN POPULATION IN EACH MOLECULAR ORBITAL
         BETA ORBITALS

                      1          2          3          4          5

                  1.000000   1.000000   1.000000   1.000000   1.000000

    1             0.000144   1.000839   0.298557   0.192201   0.292203
    2             0.999856  -0.000839   0.701443   0.807799   0.707797

                      6

                  1.000000

    1             0.286410
    2             0.713590

     ATOMIC SPIN POPULATION (ALPHA MINUS BETA)
       ATOM         MULL.POP.                    LOW.POP.
    1 C             1.785452                     1.633562
    2 O             0.214548                     0.366438


          ********* ALL ELECTRONS ********

               ----- POPULATIONS IN EACH AO -----
                             MULLIKEN      LOWDIN
              1  C  1  S      1.10483     1.04564
              2  C  1  S      0.87799     0.90805
              3  C  1  X      0.27249     0.27728
              4  C  1  Y      0.13515     0.13280
              5  C  1  Z      0.21695     0.21323
              6  C  1  S      0.78059     0.44008
              7  C  1  X      0.57322     0.55404
              8  C  1  Y      0.32132     0.30081
              9  C  1  Z      0.35676     0.38171
             10  C  1  S      0.50081     0.23088
             11  C  1  X      0.41798     0.36639
             12  C  1  Y      0.16163     0.17652
             13  C  1  Z      0.04496     0.18631
             14  C  1  S      0.03029     0.06354
             15  C  1  X      0.05241     0.05848
             16  C  1  Y      0.00484     0.01798
             17  C  1  Z      0.00817     0.02347
             18  C  1 XX     -0.01758     0.11175
             19  C  1 YY     -0.01684     0.11178
             20  C  1 ZZ      0.02656     0.20812
             21  C  1 XY      0.00000     0.00000
             22  C  1 XZ      0.04390     0.08445
             23  C  1 YZ      0.02973     0.04759
             24  O  2  S      1.08472     1.03221
             25  O  2  S      0.90243     0.93018
             26  O  2  X      0.37346     0.37758
             27  O  2  Y      0.27950     0.27946
             28  O  2  Z      0.31809     0.31250
             29  O  2  S      1.05012     0.57092
             30  O  2  X      0.74612     0.71548
             31  O  2  Y      0.59460     0.55625
             32  O  2  Z      0.66206     0.63593
             33  O  2  S      0.83841     0.39055
             34  O  2  X      0.51324     0.47089
             35  O  2  Y      0.44850     0.40340
             36  O  2  Z      0.28758     0.39507
             37  O  2  S     -0.03282     0.12313
             38  O  2  X     -0.00031     0.08268
             39  O  2  Y      0.01838     0.07895
             40  O  2  Z     -0.01788     0.09727
             41  O  2 XX     -0.01400     0.18676
             42  O  2 YY     -0.00876     0.19062
             43  O  2 ZZ      0.01658     0.21029
             44  O  2 XY      0.00000     0.00000
             45  O  2 XZ      0.00750     0.01274
             46  O  2 YZ      0.00634     0.00623

          ----- MULLIKEN ATOMIC OVERLAP POPULATIONS -----
          (OFF-DIAGONAL ELEMENTS NEED TO BE MULTIPLIED BY 2)

             1           2

    1    5.8280198
    2    0.0981397   7.9757007

          TOTAL MULLIKEN AND LOWDIN ATOMIC POPULATIONS
       ATOM         MULL.POP.    CHARGE          LOW.POP.     CHARGE
    1 C             5.926160    0.073840         5.940910    0.059090
    2 O             8.073840   -0.073840         8.059090   -0.059090

          -------------------------------
          BOND ORDER AND VALENCE ANALYSIS     BOND ORDER THRESHOLD=0.050
          -------------------------------

                   BOND                       BOND                       BOND
  ATOM PAIR DIST  ORDER      ATOM PAIR DIST  ORDER      ATOM PAIR DIST  ORDER
    1   2  1.128  2.022

                       TOTAL       BONDED        FREE
      ATOM            VALENCE     VALENCE     VALENCE
    1 C                 3.551       2.022       1.529
    2 O                 2.087       2.022       0.065

          -----------------------------------------
          ATOMIC SPIN DENSITY AT THE NUCLEUS (A.U.)
          -----------------------------------------
                            SPIN DENS    ALPHA DENS     BETA DENS
    1  C            6.0     1.1543026      60.47739      59.32309
    2  O            8.0     0.0015970     147.89240     147.89081

          ---------------------
          ELECTROSTATIC MOMENTS
          ---------------------

 POINT   1           X           Y           Z (BOHR)    CHARGE
                 0.000000    0.000000    0.000000       -0.00 (A.U.)
         DX          DY          DZ         /D/  (DEBYE)
     0.000000    0.000000   -1.323647    1.323647
 ...... END OF PROPERTY EVALUATION ......
 STEP CPU TIME =     0.01 TOTAL CPU TIME =          1.9 (      0.0 MIN)
 TOTAL WALL CLOCK TIME=          1.9 SECONDS, CPU UTILIZATION IS   100.00%
               580000  WORDS OF DYNAMIC MEMORY USED
 EXECUTION OF GAMESS TERMINATED NORMALLY Fri Dec 13 16:53:07 2019
 DDI: 263640 bytes (0.3 MB / 0 MWords) used by master data server.

 ----------------------------------------
 CPU timing information for all processes
 ========================================
 0: 1.872 + 0.12 = 1.884
 ----------------------------------------
 ddikick.x: exited gracefully.
----- accounting info -----
Files used on the master node amlan-PT-3420 were:
-rw-rw-r-- 1 akroy akroy   71201 Dec 13 16:53 /tmp/co_b3lyp.dat
-rw-rw-r-- 1 akroy akroy     315 Dec 13 16:53 /tmp/co_b3lyp.F05
-rw-rw-r-- 1 akroy akroy 1980176 Dec 13 16:53 /tmp/co_b3lyp.F08
-rw-rw-r-- 1 akroy akroy 1930480 Dec 13 16:53 /tmp/co_b3lyp.F10
Fri Dec 13 16:53:10 IST 2019
0.0u 0.0s 0:05.02 0.9% 0+0k 0+24io 0pf+0w
