----- GAMESS execution script 'rungms' -----
This job is running on host amlan-PT-3420
under operating system Linux at Fri Jun 14 00:04:22 IST 2019
Available scratch disk space (Kbyte units) at beginning of the job is
Filesystem      1K-blocks     Used  Available Use% Mounted on
/dev/sda3      1916812448 56943352 1762477584   4% /
GAMESS temporary binary files will be written to /tmp
GAMESS supplementary output files will be written to /tmp
Copying input file c_atom_6_311g3df3pd_all.inp to your run's scratch directory...

 Distributed Data Interface kickoff program.
 Initiating 1 compute processes on 1 nodes to run the following command:
 /home/akroy/gamess/gamess.01.x c_atom_6_311g3df3pd_all 

          ******************************************************
          *         GAMESS VERSION = 30 SEP 2018 (R3)         *
          *             FROM IOWA STATE UNIVERSITY             *
          * M.W.SCHMIDT, K.K.BALDRIDGE, J.A.BOATZ, S.T.ELBERT, *
          *   M.S.GORDON, J.H.JENSEN, S.KOSEKI, N.MATSUNAGA,   *
          *          K.A.NGUYEN, S.J.SU, T.L.WINDUS,           *
          *       TOGETHER WITH M.DUPUIS, J.A.MONTGOMERY       *
          *         J.COMPUT.CHEM.  14, 1347-1363(1993)        *
          **************** 64 BIT LINUX VERSION ****************

  SINCE 1993, STUDENTS AND POSTDOCS WORKING AT IOWA STATE UNIVERSITY
  AND ALSO IN THEIR VARIOUS JOBS AFTER LEAVING ISU HAVE MADE IMPORTANT
  CONTRIBUTIONS TO THE CODE:
     IVANA ADAMOVIC, CHRISTINE AIKENS, YURI ALEXEEV, POOJA ARORA,
     ANDREY ASADCHEV, ROB BELL, PRADIPTA BANDYOPADHYAY, JONATHAN BENTZ,
     BRETT BODE, KURT BRORSEN, CALEB CARLIN, GALINA CHABAN, WEI CHEN,
     CHEOL HO CHOI, PAUL DAY, ALBERT DEFUSCO, NUWAN DESILVA, TIM DUDLEY,
     DMITRI FEDOROV, ALEX FINDLATER, GRAHAM FLETCHER, MARK FREITAG,
     KURT GLAESEMANN, ANASTASIA GUNINA,
     DAN KEMP, GRANT MERRILL, NORIYUKI MINEZAWA, JONATHAN MULLIN,
     TAKESHI NAGATA, SEAN NEDD, HEATHER NETZLOFF, BOSILJKA NJEGIC, RYAN OLSON,
     MIKE PAK, BUU PHAM,
     SPENCER PRUITT, LUKE ROSKOP, JIM SHOEMAKER, LYUDMILA SLIPCHENKO,
     TONY SMITH, SAROM SOK LEANG, JIE SONG, TETSUYA TAKETSUGU, SIMON WEBB,
     PENG XU, SOOHAENG YOO, FEDERICO ZAHARIEV

  ADDITIONAL CODE HAS BEEN PROVIDED BY COLLABORATORS IN OTHER GROUPS:
     IOWA STATE UNIVERSITY:
          JOE IVANIC, AARON WEST, LAIMUTIS BYTAUTAS, KLAUS RUEDENBERG
     UNIVERSITY OF TOKYO: KIMIHIKO HIRAO, TAKAHITO NAKAJIMA,
          TAKAO TSUNEDA, MUNEAKI KAMIYA, SUSUMU YANAGISAWA,
          KIYOSHI YAGI, MAHITO CHIBA, SEIKEN TOKURA, NAOAKI KAWAKAMI
     UNIVERSITY OF AARHUS: FRANK JENSEN
     UNIVERSITY OF IOWA: VISVALDAS KAIRYS, HUI LI
     NATIONAL INST. OF STANDARDS AND TECHNOLOGY: WALT STEVENS, DAVID GARMER
     UNIVERSITY OF PISA: BENEDETTA MENNUCCI, JACOPO TOMASI
     UNIVERSITY OF MEMPHIS: HENRY KURTZ, PRAKASHAN KORAMBATH
     UNIVERSITY OF ALBERTA: TOBY ZENG, MARIUSZ KLOBUKOWSKI
     UNIVERSITY OF NEW ENGLAND: MARK SPACKMAN
     MIE UNIVERSITY: HIROAKI UMEDA
     NAT. INST. OF ADVANCED INDUSTRIAL SCIENCE AND TECHNOLOGY: KAZUO KITAURA
     MICHIGAN STATE UNIVERSITY:
          KAROL KOWALSKI, MARTA WLOCH, JEFFREY GOUR, JESSE LUTZ,
          WEI LI, JUN SHEN, J. EMILIANO DEUSTUA, PIOTR PIECUCH
     UNIVERSITY OF MINNESOTA:
          YINAN SHU
     UNIVERSITY OF SILESIA: MONIKA MUSIAL, STANISLAW KUCHARSKI
     FACULTES UNIVERSITAIRES NOTRE-DAME DE LA PAIX:
          OLIVIER QUINET, BENOIT CHAMPAGNE
     UNIVERSITY OF CALIFORNIA - SANTA BARBARA: BERNARD KIRTMAN
     INSTITUTE FOR MOLECULAR SCIENCE:
          KAZUYA ISHIMURA, MICHIO KATOUDA, AND SHIGERU NAGASE
     UNIVERSITY OF NOTRE DAME: ANNA POMOGAEVA, DAN CHIPMAN
     KYUSHU UNIVERSITY:
          HARUYUKI NAKANO,
          FENG LONG GU, JACEK KORCHOWIEC, MARCIN MAKOWSKI, AND YURIKO AOKI,
          HIROTOSHI MORI AND EISAKU MIYOSHI
     PENNSYLVANIA STATE UNIVERSITY:
          TZVETELIN IORDANOV, CHET SWALINA, JONATHAN SKONE,
          SHARON HAMMES-SCHIFFER
     WASEDA UNIVERSITY:
          MASATO KOBAYASHI, TOMOKO AKAMA, TSUGUKI TOUMA,
          TAKESHI YOSHIKAWA, YASUHIRO IKABATA, JUNJI SEINO,
          YUYA NAKAJIMA, HIROMI NAKAI
     NANJING UNIVERSITY: SHUHUA LI
     UNIVERSITY OF NEBRASKA:
          PEIFENG SU, DEJUN SI, NANDUN THELLAMUREGE, YALI WANG, HUI LI
     UNIVERSITY OF ZURICH: ROBERTO PEVERATI, KIM BALDRIDGE
     N. COPERNICUS UNIVERSITY AND JACKSON STATE UNIVERSITY:
          MARIA BARYSZ
     UNIVERSITY OF COPENHAGEN: Jimmy Kromann, CASPER STEINMANN
     TOKYO INSTITUTE OF TECHNOLOGY: HIROYA NAKATA
     NAGOYA UNIVERSITY: YOSHIO NISHIMOTO, STEPHAN IRLE
     MOSCOW STATE UNIVERSITY: VLADIMIR MIRONOV

 EXECUTION OF GAMESS BEGUN Fri Jun 14 00:04:22 2019

            ECHO OF THE FIRST FEW INPUT CARDS -
 INPUT CARD> $CONTRL SCFTYP=RHF COORD=CART MULT=1 RUNTYP=ENERGY  $END                       
 INPUT CARD> $SYSTEM TIMLIM=2000 $END                                                       
 INPUT CARD> $DFT METHOD=GRID DFTTYP=NONE $END                                              
 INPUT CARD> $BASIS EXTFIL=.TRUE. GBASIS=6311G3DF $END                                      
 INPUT CARD> $GUESS GUESS=HUCKEL $END                                                       
 INPUT CARD> $DATA                                                                          
 INPUT CARD>C                                                                               
 INPUT CARD>C1                                                                              
 INPUT CARD>C   6.0   0.0000   0.0000   0.0000                                              
 INPUT CARD> $END                                                                           
 INPUT CARD>                                                                                
    1000000 WORDS OF MEMORY AVAILABLE


                    * * * WARNING * * *
 OLD KEYWORD COORD=CART SELECTED, AUTOMATICALLY CHANGED TO COORD=PRINAXIS.
 YOUR MOLECULE'S COORDINATES WILL BE CHANGED TO PRINCIPAL AXES BY
   A) TRANSLATION TO THE CENTER OF MASS, THEN
   B) ROTATION TO HAVE A DIAGONAL MOMENT OF INERTIA TENSOR.

 HOWEVER, NOTHING ELSE IN YOUR INPUT WILL BE ROTATED IN THE SAME WAY,
 SO IF YOU HAVE A $VEC, $VIB, $GRAD, $HESS, EFP PARTICLE COORDINATES,
 OR ANYTHING ELSE THAT DEPENDS ON THE INITIAL ORIENTATION, THAT DATA
 WILL NOT BE USED CORRECTLY IN THIS RUN.

 THE PURPOSE OF COORD=PRINAXIS IS TO BE USED ONCE, ONLY AT THE VERY
 BEGINNING OF A SERIES OF COMPUTATIONS, PERHAPS TO FIND THE SYMMETRY
 UNIQUE ATOMS FROM AN ARBITRARY INITIAL ORIENTATION.

 AFTER THE FIRST RUN, YOU SHOULD USE ONLY COORD=UNIQUE, TO ENSURE THAT
 THE COORDINATES WHICH YOU READ IN ARE THE COORDINATES THAT ARE USED.


     $BASIS REQUESTS READING THE "6311G3DF" BASIS SET FROM AN EXTERNAL FILE


     RUN TITLE
     ---------
 C                                                                               

 THE POINT GROUP OF THE MOLECULE IS C1      
 THE ORDER OF THE PRINCIPAL AXIS IS     0

 THE MOMENTS OF INERTIA ARE (AMU-ANGSTROM**2)
 IXX=     0.000   IYY=     0.000   IZZ=     0.000

 THE EXTERNAL BASIS SET FILE BEING READ IS
     "/home/akroy/gamess/EXTFILE.txt"

 ATOM      ATOMIC                      COORDINATES (BOHR)
           CHARGE         X                   Y                   Z
 C           6.0     0.0000000000        0.0000000000        0.0000000000

          INTERNUCLEAR DISTANCES (ANGS.)
          ------------------------------

                1 C     

   1 C       0.0000000  

  * ... LESS THAN  3.000


     ATOMIC BASIS SET
     ----------------
 THE CONTRACTED PRIMITIVE FUNCTIONS HAVE BEEN UNNORMALIZED
 THE CONTRACTED BASIS FUNCTIONS ARE NOW NORMALIZED TO UNITY

  SHELL TYPE  PRIMITIVE        EXPONENT          CONTRACTION COEFFICIENT(S)

 C         

      1   S       1          4563.2400000    0.001966650249
      1   S       2           682.0240000    0.015230601932
      1   S       3           154.9730000    0.076126909656
      1   S       4            44.4553000    0.260801033080
      1   S       5            13.0290000    0.616462078191
      1   S       6             1.8277300    0.221006028032

      2   L       7            20.9642000    0.114660080729    0.040248692673
      2   L       8             4.8033100    0.919999647749    0.237593956746
      2   L       9             1.4593300   -0.003030682134    0.815853851473

      3   L      10             0.4834560    1.000000000000    1.000000000000

      4   L      11             0.1455850    1.000000000000    1.000000000000

      5   L      12             0.0438000    1.000000000000    1.000000000000

      6   D      13             2.5040000    1.000000000000

      7   D      14             0.6260000    1.000000000000

      8   D      15             0.1565000    1.000000000000

      9   F      16             0.8000000    1.000000000000

 TOTAL NUMBER OF BASIS SET SHELLS             =    9
 NUMBER OF CARTESIAN GAUSSIAN BASIS FUNCTIONS =   45
 NUMBER OF ELECTRONS                          =    6
 CHARGE OF MOLECULE                           =    0
 SPIN MULTIPLICITY                            =    1
 NUMBER OF OCCUPIED ORBITALS (ALPHA)          =    3
 NUMBER OF OCCUPIED ORBITALS (BETA )          =    3
 TOTAL NUMBER OF ATOMS                        =    1
 THE NUCLEAR REPULSION ENERGY IS        0.0000000000

 THIS MOLECULE IS RECOGNIZED AS BEING LINEAR,
 ORBITAL LZ DEGENERACY TOLERANCE ETOLLZ= 1.00E-06

     $CONTRL OPTIONS
     ---------------
 SCFTYP=RHF          RUNTYP=ENERGY       EXETYP=RUN     
 MPLEVL=       0     CITYP =NONE         CCTYP =NONE         VBTYP =NONE    
 DFTTYP=NONE         TDDFT =NONE    
 MULT  =       1     ICHARG=       0     NZVAR =       0     COORD =PRINAXIS
 PP    =NONE         RELWFN=NONE         LOCAL =NONE         NUMGRD=       F
 ISPHER=      -1     NOSYM =       0     MAXIT =      30     UNITS =ANGS    
 PLTORB=       F     MOLPLT=       F     AIMPAC=       F     FRIEND=        
 NPRINT=       7     IREST =       0     GEOM  =INPUT   
 NORMF =       0     NORMP =       0     ITOL  =      20     ICUT  =       9
 INTTYP=BEST         GRDTYP=BEST         QMTTOL= 1.0E-06

     $SYSTEM OPTIONS
     ---------------
  REPLICATED MEMORY=     1000000 WORDS (ON EVERY NODE).
 DISTRIBUTED MEMDDI=           0 MILLION WORDS IN AGGREGATE,
 MEMDDI DISTRIBUTED OVER   1 PROCESSORS IS           0 WORDS/PROCESSOR.
 TOTAL MEMORY REQUESTED ON EACH PROCESSOR=     1000000 WORDS.
 TIMLIM=        2000.00 MINUTES, OR       1.4 DAYS.
 PARALL= F  BALTYP=  DLB     KDIAG=    0  COREFL= F
 MXSEQ2=     300 MXSEQ3=     150  mem10=         0

          ----------------
          PROPERTIES INPUT
          ----------------

     MOMENTS            FIELD           POTENTIAL          DENSITY
 IEMOM =       1   IEFLD =       0   IEPOT =       0   IEDEN =       0
 WHERE =COMASS     WHERE =NUCLEI     WHERE =NUCLEI     WHERE =NUCLEI  
 OUTPUT=BOTH       OUTPUT=BOTH       OUTPUT=BOTH       OUTPUT=BOTH    
 IEMINT=       0   IEFINT=       0                     IEDINT=       0
                                                       MORB  =       0
          EXTRAPOLATION IN EFFECT
          SOSCF IN EFFECT
 ORBITAL PRINTING OPTION: NPREO=     1    45     2     1

     -------------------------------
     INTEGRAL TRANSFORMATION OPTIONS
     -------------------------------
     NWORD  =            0
     CUTOFF = 1.0E-09     MPTRAN =       0
     DIRTRF =       F     AOINTS =DUP     

          ----------------------
          INTEGRAL INPUT OPTIONS
          ----------------------
 NOPK  =       1 NORDER=       0 SCHWRZ=       F

     ------------------------------------------
     THE POINT GROUP IS C1 , NAXIS= 0, ORDER= 1
     ------------------------------------------

     DIMENSIONS OF THE SYMMETRY SUBSPACES ARE
 A   =   45

 ..... DONE SETTING UP THE RUN .....
 STEP CPU TIME =     0.00 TOTAL CPU TIME =          0.0 (      0.0 MIN)
 TOTAL WALL CLOCK TIME=          0.0 SECONDS, CPU UTILIZATION IS     0.00%

          ********************
          1 ELECTRON INTEGRALS
          ********************
 ...... END OF ONE-ELECTRON INTEGRALS ......
 STEP CPU TIME =     0.00 TOTAL CPU TIME =          0.0 (      0.0 MIN)
 TOTAL WALL CLOCK TIME=          0.0 SECONDS, CPU UTILIZATION IS     0.00%

          -------------
          GUESS OPTIONS
          -------------
          GUESS =HUCKEL            NORB  =       0          NORDER=       0
          MIX   =       F          PRTMO =       F          PUNMO =       F
          TOLZ  = 1.0E-08          TOLE  = 1.0E-05
          SYMDEN=       F          PURIFY=       F

 INITIAL GUESS ORBITALS GENERATED BY HUCKEL   ROUTINE.
 HUCKEL GUESS REQUIRES     15798 WORDS.

 SYMMETRIES FOR INITIAL GUESS ORBITALS FOLLOW.   BOTH SET(S).
     3 ORBITALS ARE OCCUPIED (    1 CORE ORBITALS).
     2=A        3=A        4=A        5=A        6=A        7=A        8=A   
     9=A       10=A       11=A       12=A       13=A   
 ...... END OF INITIAL ORBITAL SELECTION ......
 STEP CPU TIME =     0.01 TOTAL CPU TIME =          0.0 (      0.0 MIN)
 TOTAL WALL CLOCK TIME=          0.0 SECONDS, CPU UTILIZATION IS    50.00%

                    ----------------------
                    AO INTEGRAL TECHNOLOGY
                    ----------------------
     S,P,L SHELL ROTATED AXIS INTEGRALS, REPROGRAMMED BY
        KAZUYA ISHIMURA (IMS) AND JOSE SIERRA (SYNSTAR).
     S,P,D,L SHELL ROTATED AXIS INTEGRALS PROGRAMMED BY
        KAZUYA ISHIMURA (INSTITUTE FOR MOLECULAR SCIENCE).
     S,P,D,F,G SHELL TO TOTAL QUARTET ANGULAR MOMENTUM SUM 5,
        ERIC PROGRAM BY GRAHAM FLETCHER (ELORET AND NASA ADVANCED
        SUPERCOMPUTING DIVISION, AMES RESEARCH CENTER).
     S,P,D,F,G,L SHELL GENERAL RYS QUADRATURE PROGRAMMED BY
        MICHEL DUPUIS (PACIFIC NORTHWEST NATIONAL LABORATORY).

          --------------------
          2 ELECTRON INTEGRALS
          --------------------

 THE -PK- OPTION IS OFF, THE INTEGRALS ARE NOT IN SUPERMATRIX FORM.
 STORING   15000 INTEGRALS/RECORD ON DISK, USING 12 BYTES/INTEGRAL.
 TWO ELECTRON INTEGRAL EVALUATION REQUIRES   99145 WORDS OF MEMORY.
 II,JST,KST,LST =  1  1  1  1 NREC =         1 INTLOC =    1
 II,JST,KST,LST =  2  1  1  1 NREC =         1 INTLOC =    2
 II,JST,KST,LST =  3  1  1  1 NREC =         1 INTLOC =   34
 II,JST,KST,LST =  4  1  1  1 NREC =         1 INTLOC =  214
 II,JST,KST,LST =  5  1  1  1 NREC =         1 INTLOC =  776
 II,JST,KST,LST =  6  1  1  1 NREC =         1 INTLOC = 2074
 II,JST,KST,LST =  7  1  1  1 NREC =         1 INTLOC = 5929
 II,JST,KST,LST =  8  1  1  1 NREC =         1 INTLOC =14065
 II,JST,KST,LST =  9  1  1  1 NREC =         2 INTLOC =14002
 TOTAL NUMBER OF NONZERO TWO-ELECTRON INTEGRALS =               72961
          5 INTEGRAL RECORDS WERE STORED ON DISK FILE  8.
  ...... END OF TWO-ELECTRON INTEGRALS .....
 STEP CPU TIME =     0.02 TOTAL CPU TIME =          0.0 (      0.0 MIN)
 TOTAL WALL CLOCK TIME=          0.0 SECONDS, CPU UTILIZATION IS    75.00%

          --------------------------
                 RHF SCF CALCULATION
          --------------------------

     NUCLEAR ENERGY =         0.0000000000
     MAXIT =   30     NPUNCH=    2
     EXTRAP=T  DAMP=F  SHIFT=F  RSTRCT=F  DIIS=F  DEM=F  SOSCF=T
     DENSITY MATRIX CONV=  1.00E-05
     SOSCF WILL OPTIMIZE     126 ORBITAL ROTATIONS, SOGTOL=   0.250
     MEMORY REQUIRED FOR RHF ITERS=     45309 WORDS.

 ITER EX DEM     TOTAL ENERGY        E CHANGE  DENSITY CHANGE     ORB. GRAD
   1  0  0      -37.5129151409   -37.5129151409   1.013004727   0.000000000
          ---------------START SECOND ORDER SCF---------------
   2  1  0      -37.6009695522    -0.0880544113   0.035069129   0.025531657
   3  2  0      -37.6018196371    -0.0008500848   0.007442431   0.002338904
   4  3  0      -37.6018622105    -0.0000425735   0.001076151   0.000499959
   5  4  0      -37.6018627625    -0.0000005520   0.000311931   0.000096289
   6  5  0      -37.6018628137    -0.0000000512   0.000032452   0.000014488
   7  6  0      -37.6018628139    -0.0000000001   0.000004596   0.000001454
   8  7  0      -37.6018628139    -0.0000000000   0.000000046   0.000000042

          -----------------
          DENSITY CONVERGED
          -----------------
     TIME TO FORM FOCK OPERATORS=       0.0 SECONDS (       0.0 SEC/ITER)
     TIME TO SOLVE SCF EQUATIONS=       0.0 SECONDS (       0.0 SEC/ITER)

 FINAL RHF ENERGY IS      -37.6018628139 AFTER   8 ITERATIONS

 LZ VALUE ANALYSIS FOR THE MOS
 ----------------------------------------
 MO     1 (    1) HAS LZ(WEIGHT)= 0.00(100.0%) 
 MO     2 (    2) HAS LZ(WEIGHT)= 0.00(100.0%) 
 MO     3 (    3) HAS LZ(WEIGHT)= 0.00(100.0%) 
 MO     4 (    4) HAS LZ(WEIGHT)= 0.00(100.0%) 
 MO     5 (    4) HAS LZ(WEIGHT)= 0.00(100.0%) 
 MO     6 (    5) HAS LZ(WEIGHT)= 0.00(100.0%) 
 MO     7 (    6) HAS LZ(WEIGHT)= 0.00(100.0%) 
 MO     8 (    7) HAS LZ(WEIGHT)= 0.00(100.0%) 
 MO     9 (    7) HAS LZ(WEIGHT)= 0.00(100.0%) 
 MO    10 (    8) HAS LZ(WEIGHT)= 0.00(100.0%) 
 MO    11 (    9) HAS LZ(WEIGHT)= 0.00(100.0%) 
 MO    12 (    9) HAS LZ(WEIGHT)= 0.00(100.0%) 
 MO    13 (   10) HAS LZ(WEIGHT)= 0.00(100.0%) 
 MO    14 (   10) HAS LZ(WEIGHT)= 0.00(100.0%) 
 MO    15 (   11) HAS LZ(WEIGHT)= 0.00(100.0%) 
 MO    16 (   12) HAS LZ(WEIGHT)= 0.00(100.0%) 
 MO    17 (   13) HAS LZ(WEIGHT)= 0.00(100.0%) 
 MO    18 (   13) HAS LZ(WEIGHT)= 0.00(100.0%) 
 MO    19 (   14) HAS LZ(WEIGHT)= 0.00(100.0%) 
 MO    20 (   15) HAS LZ(WEIGHT)= 0.00(100.0%) 
 MO    21 (   15) HAS LZ(WEIGHT)= 0.00(100.0%) 
 MO    22 (   16) HAS LZ(WEIGHT)= 0.00(100.0%) 
 MO    23 (   16) HAS LZ(WEIGHT)= 0.00(100.0%) 
 MO    24 (   17) HAS LZ(WEIGHT)= 0.00(100.0%) 
 MO    25 (   18) HAS LZ(WEIGHT)= 0.00(100.0%) 
 MO    26 (   18) HAS LZ(WEIGHT)= 0.00(100.0%) 
 MO    27 (   19) HAS LZ(WEIGHT)= 0.00(100.0%) 
 MO    28 (   20) HAS LZ(WEIGHT)= 0.00(100.0%) 
 MO    29 (   20) HAS LZ(WEIGHT)= 0.00(100.0%) 
 MO    30 (   21) HAS LZ(WEIGHT)= 0.00(100.0%) 
 MO    31 (   21) HAS LZ(WEIGHT)= 0.00(100.0%) 
 MO    32 (   22) HAS LZ(WEIGHT)= 0.00(100.0%) 
 MO    33 (   22) HAS LZ(WEIGHT)= 0.00(100.0%) 
 MO    34 (   23) HAS LZ(WEIGHT)= 0.00(100.0%) 
 MO    35 (   24) HAS LZ(WEIGHT)= 0.00(100.0%) 
 MO    36 (   25) HAS LZ(WEIGHT)= 0.00(100.0%) 
 MO    37 (   25) HAS LZ(WEIGHT)= 0.00(100.0%) 
 MO    38 (   26) HAS LZ(WEIGHT)= 0.00(100.0%) 
 MO    39 (   26) HAS LZ(WEIGHT)= 0.00(100.0%) 
 MO    40 (   27) HAS LZ(WEIGHT)= 0.00(100.0%) 
 MO    41 (   28) HAS LZ(WEIGHT)=-0.00( 50.0%)  0.00( 50.0%) 
 MO    42 (   28) HAS LZ(WEIGHT)=-0.00( 50.0%)  0.00( 50.0%) 
 MO    43 (   29) HAS LZ(WEIGHT)= 0.00(100.0%) 
 MO    44 (   30) HAS LZ(WEIGHT)= 0.00(100.0%) 
 MO    45 (   31) HAS LZ(WEIGHT)= 0.00(100.0%) 

          ------------
          EIGENVECTORS
          ------------

                      1          2          3          4          5
                  -11.3649    -0.7259    -0.3579     0.0211     0.0211
                     A          A          A          A          A   
    1  C  1  S    0.563759  -0.122032   0.000000   0.000000  -0.000000
    2  C  1  S    0.468538  -0.216288   0.000000   0.000000  -0.000000
    3  C  1  X    0.000000   0.000000   0.281777   0.000000  -0.000000
    4  C  1  Y    0.000000   0.000000   0.000000  -0.009442   0.169540
    5  C  1  Z    0.000000   0.000000   0.000000   0.169540   0.009442
    6  C  1  S   -0.005485   0.596298   0.000000   0.000000  -0.000000
    7  C  1  X    0.000000   0.000000   0.442034   0.000000  -0.000000
    8  C  1  Y    0.000000   0.000000   0.000000  -0.016006   0.287397
    9  C  1  Z    0.000000   0.000000   0.000000   0.287397   0.016006
   10  C  1  S   -0.002237   0.609567   0.000000   0.000000  -0.000000
   11  C  1  X    0.000000   0.000000   0.441174   0.000000  -0.000000
   12  C  1  Y    0.000000   0.000000   0.000000  -0.017970   0.322668
   13  C  1  Z    0.000000   0.000000   0.000000   0.322668   0.017970
   14  C  1  S   -0.000250   0.038773   0.000000   0.000000  -0.000000
   15  C  1  X    0.000000   0.000000   0.065371   0.000000  -0.000000
   16  C  1  Y    0.000000   0.000000   0.000000  -0.029053   0.521664
   17  C  1  Z    0.000000   0.000000   0.000000   0.521664   0.029053
   18  C  1 XX    0.001170  -0.004972   0.000000   0.000000  -0.000000
   19  C  1 YY    0.001622  -0.007661   0.000000   0.000000  -0.000000
   20  C  1 ZZ    0.001622  -0.007661   0.000000   0.000000  -0.000000
   21  C  1 XY    0.000000   0.000000   0.000000   0.000000  -0.000000
   22  C  1 XZ    0.000000   0.000000   0.000000   0.000000  -0.000000
   23  C  1 YZ    0.000000   0.000000   0.000000   0.000000  -0.000000
   24  C  1 XX    0.003648  -0.019293   0.000000   0.000000  -0.000000
   25  C  1 YY    0.002189  -0.020939   0.000000   0.000000  -0.000000
   26  C  1 ZZ    0.002189  -0.020939   0.000000   0.000000  -0.000000
   27  C  1 XY    0.000000   0.000000   0.000000   0.000000  -0.000000
   28  C  1 XZ    0.000000   0.000000   0.000000   0.000000  -0.000000
   29  C  1 YZ    0.000000   0.000000   0.000000   0.000000  -0.000000
   30  C  1 XX    0.000603  -0.029456   0.000000   0.000000  -0.000000
   31  C  1 YY    0.000615  -0.045995   0.000000   0.000000  -0.000000
   32  C  1 ZZ    0.000615  -0.045995   0.000000   0.000000  -0.000000
   33  C  1 XY    0.000000   0.000000   0.000000   0.000000  -0.000000
   34  C  1 XZ    0.000000   0.000000   0.000000   0.000000  -0.000000
   35  C  1 YZ    0.000000   0.000000   0.000000   0.000000  -0.000000
   36  C  1 XXX   0.000000   0.000000  -0.008774   0.000000  -0.000000
   37  C  1 YYY   0.000000   0.000000   0.000000  -0.000359   0.006452
   38  C  1 ZZZ   0.000000   0.000000   0.000000   0.006452   0.000359
   39  C  1 XXY   0.000000   0.000000   0.000000   0.000352  -0.006323
   40  C  1 XXZ   0.000000   0.000000   0.000000  -0.006323  -0.000352
   41  C  1 YYX   0.000000   0.000000   0.008865   0.000000  -0.000000
   42  C  1 YYZ   0.000000   0.000000   0.000000   0.002886   0.000161
   43  C  1 ZZX   0.000000   0.000000   0.008865   0.000000  -0.000000
   44  C  1 ZZY   0.000000   0.000000   0.000000  -0.000161   0.002886
   45  C  1 XYZ   0.000000   0.000000   0.000000   0.000000  -0.000000

                      6          7          8          9         10
                    0.0839     0.1325     0.1553     0.1553     0.4301
                     A          A          A          A          A   
    1  C  1  S    0.033690   0.000000   0.000000   0.000000  -0.040559
    2  C  1  S    0.006712   0.000000   0.000000   0.000000  -0.248263
    3  C  1  X    0.000000  -0.113137   0.000000   0.000000   0.000000
    4  C  1  Y    0.000000   0.000000  -0.170043  -0.077648   0.000000
    5  C  1  Z    0.000000   0.000000   0.077648  -0.170043   0.000000
    6  C  1  S   -0.291422   0.000000   0.000000   0.000000  -0.125996
    7  C  1  X    0.000000  -0.027385   0.000000   0.000000   0.000000
    8  C  1  Y    0.000000   0.000000  -0.118872  -0.054281   0.000000
    9  C  1  Z    0.000000   0.000000   0.054281  -0.118872   0.000000
   10  C  1  S   -0.076949   0.000000   0.000000   0.000000   2.317702
   11  C  1  X    0.000000  -0.539677   0.000000   0.000000   0.000000
   12  C  1  Y    0.000000   0.000000  -0.732467  -0.334470   0.000000
   13  C  1  Z    0.000000   0.000000   0.334470  -0.732467   0.000000
   14  C  1  S    2.020773   0.000000   0.000000   0.000000   1.859397
   15  C  1  X    0.000000   1.240014   0.000000   0.000000   0.000000
   16  C  1  Y    0.000000   0.000000   1.044765   0.477076   0.000000
   17  C  1  Z    0.000000   0.000000  -0.477076   1.044765   0.000000
   18  C  1 XX   -0.032695   0.000000   0.000000   0.000000  -0.103638
   19  C  1 YY   -0.032031   0.000000   0.000000   0.000000  -0.110884
   20  C  1 ZZ   -0.032031   0.000000   0.000000   0.000000  -0.110884
   21  C  1 XY    0.000000   0.000000   0.000000   0.000000   0.000000
   22  C  1 XZ    0.000000   0.000000   0.000000   0.000000   0.000000
   23  C  1 YZ    0.000000   0.000000   0.000000   0.000000   0.000000
   24  C  1 XX   -0.118750   0.000000   0.000000   0.000000  -0.439659
   25  C  1 YY   -0.127771   0.000000   0.000000   0.000000  -0.411992
   26  C  1 ZZ   -0.127771   0.000000   0.000000   0.000000  -0.411992
   27  C  1 XY    0.000000   0.000000   0.000000   0.000000   0.000000
   28  C  1 XZ    0.000000   0.000000   0.000000   0.000000   0.000000
   29  C  1 YZ    0.000000   0.000000   0.000000   0.000000   0.000000
   30  C  1 XX   -0.494529   0.000000   0.000000   0.000000  -1.336771
   31  C  1 YY   -0.464955   0.000000   0.000000   0.000000  -1.785239
   32  C  1 ZZ   -0.464955   0.000000   0.000000   0.000000  -1.785239
   33  C  1 XY    0.000000   0.000000   0.000000   0.000000   0.000000
   34  C  1 XZ    0.000000   0.000000   0.000000   0.000000   0.000000
   35  C  1 YZ    0.000000   0.000000   0.000000   0.000000   0.000000
   36  C  1 XXX   0.000000  -0.020351   0.000000   0.000000   0.000000
   37  C  1 YYY   0.000000   0.000000  -0.030758  -0.014045   0.000000
   38  C  1 ZZZ   0.000000   0.000000   0.014045  -0.030758   0.000000
   39  C  1 XXY   0.000000   0.000000  -0.006140  -0.002804   0.000000
   40  C  1 XXZ   0.000000   0.000000   0.002804  -0.006140   0.000000
   41  C  1 YYX   0.000000  -0.012999   0.000000   0.000000   0.000000
   42  C  1 YYZ   0.000000   0.000000   0.006281  -0.013755   0.000000
   43  C  1 ZZX   0.000000  -0.012999   0.000000   0.000000   0.000000
   44  C  1 ZZY   0.000000   0.000000  -0.013755  -0.006281   0.000000
   45  C  1 XYZ   0.000000   0.000000   0.000000   0.000000   0.000000

                     11         12         13         14         15
                    0.4571     0.4571     0.4709     0.4709     0.4802
                     A          A          A          A          A   
    1  C  1  S   -0.000000   0.000000  -0.000000   0.000000   0.012534
    2  C  1  S   -0.000000   0.000000  -0.000000   0.000000   0.080365
    3  C  1  X   -0.000000   0.000000  -0.000000   0.000000  -0.000000
    4  C  1  Y   -0.000000   0.000000  -0.000000   0.000000  -0.000000
    5  C  1  Z   -0.000000   0.000000  -0.000000   0.000000  -0.000000
    6  C  1  S   -0.000000   0.000000  -0.000000   0.000000   0.056971
    7  C  1  X   -0.000000   0.000000  -0.000000   0.000000  -0.000000
    8  C  1  Y   -0.000000   0.000000  -0.000000   0.000000  -0.000000
    9  C  1  Z   -0.000000   0.000000  -0.000000   0.000000  -0.000000
   10  C  1  S   -0.000000   0.000000  -0.000000   0.000000  -0.815061
   11  C  1  X   -0.000000   0.000000  -0.000000   0.000000  -0.000000
   12  C  1  Y   -0.000000   0.000000  -0.000000   0.000000  -0.000000
   13  C  1  Z   -0.000000   0.000000  -0.000000   0.000000  -0.000000
   14  C  1  S   -0.000000   0.000000  -0.000000   0.000000  -0.546143
   15  C  1  X   -0.000000   0.000000  -0.000000   0.000000  -0.000000
   16  C  1  Y   -0.000000   0.000000  -0.000000   0.000000  -0.000000
   17  C  1  Z   -0.000000   0.000000  -0.000000   0.000000  -0.000000
   18  C  1 XX   -0.000000   0.000000  -0.000000   0.000000   0.053042
   19  C  1 YY   -0.000624  -0.014303  -0.000000   0.000000   0.027055
   20  C  1 ZZ    0.000624   0.014303  -0.000000   0.000000   0.027055
   21  C  1 XY   -0.000000   0.000000  -0.008699   0.015375  -0.000000
   22  C  1 XZ   -0.000000   0.000000   0.015375   0.008699  -0.000000
   23  C  1 YZ    0.016515  -0.000720  -0.000000   0.000000  -0.000000
   24  C  1 XX   -0.000000   0.000000  -0.000000   0.000000   0.118207
   25  C  1 YY    0.001324   0.030341  -0.000000   0.000000   0.152349
   26  C  1 ZZ   -0.001324  -0.030341  -0.000000   0.000000   0.152349
   27  C  1 XY   -0.000000   0.000000   0.014106  -0.024932  -0.000000
   28  C  1 XZ   -0.000000   0.000000  -0.024932  -0.014106  -0.000000
   29  C  1 YZ   -0.035035   0.001528  -0.000000   0.000000  -0.000000
   30  C  1 XX   -0.000000   0.000000  -0.000000   0.000000   1.485926
   31  C  1 YY   -0.038291  -0.877750  -0.000000   0.000000   0.037832
   32  C  1 ZZ    0.038291   0.877750  -0.000000   0.000000   0.037832
   33  C  1 XY   -0.000000   0.000000  -0.498134   0.880442  -0.000000
   34  C  1 XZ   -0.000000   0.000000   0.880442   0.498134  -0.000000
   35  C  1 YZ    1.013538  -0.044214  -0.000000   0.000000  -0.000000
   36  C  1 XXX  -0.000000   0.000000  -0.000000   0.000000  -0.000000
   37  C  1 YYY  -0.000000   0.000000  -0.000000   0.000000  -0.000000
   38  C  1 ZZZ  -0.000000   0.000000  -0.000000   0.000000  -0.000000
   39  C  1 XXY  -0.000000   0.000000  -0.000000   0.000000  -0.000000
   40  C  1 XXZ  -0.000000   0.000000  -0.000000   0.000000  -0.000000
   41  C  1 YYX  -0.000000   0.000000  -0.000000   0.000000  -0.000000
   42  C  1 YYZ  -0.000000   0.000000  -0.000000   0.000000  -0.000000
   43  C  1 ZZX  -0.000000   0.000000  -0.000000   0.000000  -0.000000
   44  C  1 ZZY  -0.000000   0.000000  -0.000000   0.000000  -0.000000
   45  C  1 XYZ  -0.000000   0.000000  -0.000000   0.000000  -0.000000

                     16         17         18         19         20
                    0.7153     0.7296     0.7296     1.3079     1.8102
                     A          A          A          A          A   
    1  C  1  S   -0.000000  -0.000000  -0.000000   0.149588   0.000000
    2  C  1  S   -0.000000  -0.000000  -0.000000  -0.174394   0.000000
    3  C  1  X   -0.195609  -0.000000  -0.000000   0.000000   0.000000
    4  C  1  Y   -0.000000   0.134421  -0.167717   0.000000   0.000000
    5  C  1  Z   -0.000000  -0.167717  -0.134421   0.000000   0.000000
    6  C  1  S   -0.000000  -0.000000  -0.000000  -2.516399   0.000000
    7  C  1  X   -1.095224  -0.000000  -0.000000   0.000000   0.000000
    8  C  1  Y   -0.000000   0.726150  -0.906016   0.000000   0.000000
    9  C  1  Z   -0.000000  -0.906016  -0.726150   0.000000   0.000000
   10  C  1  S   -0.000000  -0.000000  -0.000000   8.079710   0.000000
   11  C  1  X    1.614693  -0.000000  -0.000000   0.000000   0.000000
   12  C  1  Y   -0.000000  -0.960028   1.197825   0.000000   0.000000
   13  C  1  Z   -0.000000   1.197825   0.960028   0.000000   0.000000
   14  C  1  S   -0.000000  -0.000000  -0.000000   1.279266   0.000000
   15  C  1  X   -0.657603  -0.000000  -0.000000   0.000000   0.000000
   16  C  1  Y   -0.000000   0.387142  -0.483036   0.000000   0.000000
   17  C  1  Z   -0.000000  -0.483036  -0.387142   0.000000   0.000000
   18  C  1 XX   -0.000000  -0.000000  -0.000000  -0.272351   0.000000
   19  C  1 YY   -0.000000  -0.000000  -0.000000  -0.278426  -0.000056
   20  C  1 ZZ   -0.000000  -0.000000  -0.000000  -0.278426   0.000056
   21  C  1 XY   -0.000000  -0.000000  -0.000000   0.000000   0.000000
   22  C  1 XZ   -0.000000  -0.000000  -0.000000   0.000000   0.000000
   23  C  1 YZ   -0.000000  -0.000000  -0.000000   0.000000  -0.010255
   24  C  1 XX   -0.000000  -0.000000  -0.000000  -1.156284   0.000000
   25  C  1 YY   -0.000000  -0.000000  -0.000000  -1.154042   0.006206
   26  C  1 ZZ   -0.000000  -0.000000  -0.000000  -1.154042  -0.006206
   27  C  1 XY   -0.000000  -0.000000  -0.000000   0.000000   0.000000
   28  C  1 XZ   -0.000000  -0.000000  -0.000000   0.000000   0.000000
   29  C  1 YZ   -0.000000  -0.000000  -0.000000   0.000000   1.130027
   30  C  1 XX   -0.000000  -0.000000  -0.000000  -2.454918   0.000000
   31  C  1 YY   -0.000000  -0.000000  -0.000000  -2.472883  -0.002709
   32  C  1 ZZ   -0.000000  -0.000000  -0.000000  -2.472883   0.002709
   33  C  1 XY   -0.000000  -0.000000  -0.000000   0.000000   0.000000
   34  C  1 XZ   -0.000000  -0.000000  -0.000000   0.000000   0.000000
   35  C  1 YZ   -0.000000  -0.000000  -0.000000   0.000000  -0.493360
   36  C  1 XXX   0.083094  -0.000000  -0.000000   0.000000   0.000000
   37  C  1 YYY  -0.000000  -0.042401   0.052904   0.000000   0.000000
   38  C  1 ZZZ  -0.000000   0.052904   0.042401   0.000000   0.000000
   39  C  1 XXY  -0.000000  -0.024007   0.029954   0.000000   0.000000
   40  C  1 XXZ  -0.000000   0.029954   0.024007   0.000000   0.000000
   41  C  1 YYX   0.031011  -0.000000  -0.000000   0.000000   0.000000
   42  C  1 YYZ  -0.000000   0.023659   0.018962   0.000000   0.000000
   43  C  1 ZZX   0.031011  -0.000000  -0.000000   0.000000   0.000000
   44  C  1 ZZY  -0.000000  -0.018962   0.023659   0.000000   0.000000
   45  C  1 XYZ  -0.000000  -0.000000  -0.000000   0.000000   0.000000

                     21         22         23         24         25
                    1.8102     1.8376     1.8376     1.8484     2.9888
                     A          A          A          A          A   
    1  C  1  S   -0.000000   0.000000   0.000000  -0.002358  -0.000000
    2  C  1  S   -0.000000   0.000000   0.000000  -0.020219  -0.000000
    3  C  1  X   -0.000000   0.000000   0.000000   0.000000  -0.000000
    4  C  1  Y   -0.000000   0.000000   0.000000   0.000000   0.184848
    5  C  1  Z   -0.000000   0.000000   0.000000   0.000000   1.051047
    6  C  1  S   -0.000000   0.000000   0.000000   0.040792  -0.000000
    7  C  1  X   -0.000000   0.000000   0.000000   0.000000  -0.000000
    8  C  1  Y   -0.000000   0.000000   0.000000   0.000000  -0.079299
    9  C  1  Z   -0.000000   0.000000   0.000000   0.000000  -0.450892
   10  C  1  S   -0.000000   0.000000   0.000000   0.122782  -0.000000
   11  C  1  X   -0.000000   0.000000   0.000000   0.000000  -0.000000
   12  C  1  Y   -0.000000   0.000000   0.000000   0.000000   0.120179
   13  C  1  Z   -0.000000   0.000000   0.000000   0.000000   0.683341
   14  C  1  S   -0.000000   0.000000   0.000000   0.019177  -0.000000
   15  C  1  X   -0.000000   0.000000   0.000000   0.000000  -0.000000
   16  C  1  Y   -0.000000   0.000000   0.000000   0.000000  -0.040540
   17  C  1  Z   -0.000000   0.000000   0.000000   0.000000  -0.230512
   18  C  1 XX   -0.000000   0.000000   0.000000  -0.015376  -0.000000
   19  C  1 YY    0.008881   0.000000   0.000000  -0.005065  -0.000000
   20  C  1 ZZ   -0.008881   0.000000   0.000000  -0.005065  -0.000000
   21  C  1 XY   -0.000000  -0.003284  -0.006794   0.000000  -0.000000
   22  C  1 XZ   -0.000000  -0.006794   0.003284   0.000000  -0.000000
   23  C  1 YZ   -0.000065   0.000000   0.000000   0.000000  -0.000000
   24  C  1 XX   -0.000000   0.000000   0.000000   1.081145  -0.000000
   25  C  1 YY   -0.978632   0.000000   0.000000  -0.611195  -0.000000
   26  C  1 ZZ    0.978632   0.000000   0.000000  -0.611195  -0.000000
   27  C  1 XY   -0.000000   0.491193   1.016277   0.000000  -0.000000
   28  C  1 XZ   -0.000000   1.016277  -0.491193   0.000000  -0.000000
   29  C  1 YZ    0.007166   0.000000   0.000000   0.000000  -0.000000
   30  C  1 XX   -0.000000   0.000000   0.000000  -0.539946  -0.000000
   31  C  1 YY    0.427262   0.000000   0.000000   0.210788  -0.000000
   32  C  1 ZZ   -0.427262   0.000000   0.000000   0.210788  -0.000000
   33  C  1 XY   -0.000000  -0.217256  -0.449501   0.000000  -0.000000
   34  C  1 XZ   -0.000000  -0.449501   0.217256   0.000000  -0.000000
   35  C  1 YZ   -0.003129   0.000000   0.000000   0.000000  -0.000000
   36  C  1 XXX  -0.000000   0.000000   0.000000   0.000000  -0.000000
   37  C  1 YYY  -0.000000   0.000000   0.000000   0.000000  -0.113499
   38  C  1 ZZZ  -0.000000   0.000000   0.000000   0.000000  -0.645355
   39  C  1 XXY  -0.000000   0.000000   0.000000   0.000000  -0.014193
   40  C  1 XXZ  -0.000000   0.000000   0.000000   0.000000  -0.080699
   41  C  1 YYX  -0.000000   0.000000   0.000000   0.000000  -0.000000
   42  C  1 YYZ  -0.000000   0.000000   0.000000   0.000000  -0.288611
   43  C  1 ZZX  -0.000000   0.000000   0.000000   0.000000  -0.000000
   44  C  1 ZZY  -0.000000   0.000000   0.000000   0.000000  -0.050758
   45  C  1 XYZ  -0.000000   0.000000   0.000000   0.000000  -0.000000

                     26         27         28         29         30
                    2.9888     3.0187     3.0482     3.0482     3.0938
                     A          A          A          A          A   
    1  C  1  S   -0.000000  -0.000000  -0.000000   0.000000   0.000000
    2  C  1  S   -0.000000  -0.000000  -0.000000   0.000000   0.000000
    3  C  1  X   -0.000000   1.063803  -0.000000   0.000000   0.000000
    4  C  1  Y    1.051047  -0.000000  -0.000000   0.000000   0.000000
    5  C  1  Z   -0.184848  -0.000000  -0.000000   0.000000   0.000000
    6  C  1  S   -0.000000  -0.000000  -0.000000   0.000000   0.000000
    7  C  1  X   -0.000000  -0.552219  -0.000000   0.000000   0.000000
    8  C  1  Y   -0.450892  -0.000000  -0.000000   0.000000   0.000000
    9  C  1  Z    0.079299  -0.000000  -0.000000   0.000000   0.000000
   10  C  1  S   -0.000000  -0.000000  -0.000000   0.000000   0.000000
   11  C  1  X   -0.000000   0.703501  -0.000000   0.000000   0.000000
   12  C  1  Y    0.683341  -0.000000  -0.000000   0.000000   0.000000
   13  C  1  Z   -0.120179  -0.000000  -0.000000   0.000000   0.000000
   14  C  1  S   -0.000000  -0.000000  -0.000000   0.000000   0.000000
   15  C  1  X   -0.000000  -0.235332  -0.000000   0.000000   0.000000
   16  C  1  Y   -0.230512  -0.000000  -0.000000   0.000000   0.000000
   17  C  1  Z    0.040540  -0.000000  -0.000000   0.000000   0.000000
   18  C  1 XX   -0.000000  -0.000000  -0.000000   0.000000   0.000000
   19  C  1 YY   -0.000000  -0.000000  -0.000000   0.000000   0.000000
   20  C  1 ZZ   -0.000000  -0.000000  -0.000000   0.000000   0.000000
   21  C  1 XY   -0.000000  -0.000000  -0.000000   0.000000   0.000000
   22  C  1 XZ   -0.000000  -0.000000  -0.000000   0.000000   0.000000
   23  C  1 YZ   -0.000000  -0.000000  -0.000000   0.000000   0.000000
   24  C  1 XX   -0.000000  -0.000000  -0.000000   0.000000   0.000000
   25  C  1 YY   -0.000000  -0.000000  -0.000000   0.000000   0.000000
   26  C  1 ZZ   -0.000000  -0.000000  -0.000000   0.000000   0.000000
   27  C  1 XY   -0.000000  -0.000000  -0.000000   0.000000   0.000000
   28  C  1 XZ   -0.000000  -0.000000  -0.000000   0.000000   0.000000
   29  C  1 YZ   -0.000000  -0.000000  -0.000000   0.000000   0.000000
   30  C  1 XX   -0.000000  -0.000000  -0.000000   0.000000   0.000000
   31  C  1 YY   -0.000000  -0.000000  -0.000000   0.000000   0.000000
   32  C  1 ZZ   -0.000000  -0.000000  -0.000000   0.000000   0.000000
   33  C  1 XY   -0.000000  -0.000000  -0.000000   0.000000   0.000000
   34  C  1 XZ   -0.000000  -0.000000  -0.000000   0.000000   0.000000
   35  C  1 YZ   -0.000000  -0.000000  -0.000000   0.000000   0.000000
   36  C  1 XXX  -0.000000  -0.286135  -0.000000   0.000000   0.000000
   37  C  1 YYY  -0.645355  -0.000000  -0.188783  -0.767699   0.000000
   38  C  1 ZZZ   0.113499  -0.000000  -0.767699   0.188783   0.000000
   39  C  1 XXY  -0.080699  -0.000000  -0.000000   0.000000   0.000000
   40  C  1 XXZ   0.014193  -0.000000  -0.000000   0.000000   0.000000
   41  C  1 YYX  -0.000000  -0.379237  -0.000000   0.000000   0.005103
   42  C  1 YYZ   0.050758  -0.000000   1.029976  -0.253279   0.000000
   43  C  1 ZZX  -0.000000  -0.379237  -0.000000   0.000000  -0.005103
   44  C  1 ZZY  -0.288611  -0.000000   0.253279   1.029976   0.000000
   45  C  1 XYZ  -0.000000  -0.000000  -0.000000   0.000000   0.999983

                     31         32         33         34         35
                    3.0938     3.1248     3.1248     3.1368     3.4195
                     A          A          A          A          A   
    1  C  1  S   -0.000000  -0.000000  -0.000000  -0.000000  -0.030027
    2  C  1  S   -0.000000  -0.000000  -0.000000  -0.000000  -1.529969
    3  C  1  X   -0.000000  -0.000000  -0.000000  -0.244889  -0.000000
    4  C  1  Y   -0.000000  -0.148299  -0.075585  -0.000000  -0.000000
    5  C  1  Z   -0.000000   0.075585  -0.148299  -0.000000  -0.000000
    6  C  1  S   -0.000000  -0.000000  -0.000000  -0.000000   4.084386
    7  C  1  X   -0.000000  -0.000000  -0.000000   0.156958  -0.000000
    8  C  1  Y   -0.000000   0.085405   0.043529  -0.000000  -0.000000
    9  C  1  Z   -0.000000  -0.043529   0.085405  -0.000000  -0.000000
   10  C  1  S   -0.000000  -0.000000  -0.000000  -0.000000   7.663425
   11  C  1  X   -0.000000  -0.000000  -0.000000  -0.166246  -0.000000
   12  C  1  Y   -0.000000  -0.099641  -0.050785  -0.000000  -0.000000
   13  C  1  Z   -0.000000   0.050785  -0.099641  -0.000000  -0.000000
   14  C  1  S   -0.000000  -0.000000  -0.000000  -0.000000   0.776560
   15  C  1  X   -0.000000  -0.000000  -0.000000   0.054820  -0.000000
   16  C  1  Y   -0.000000   0.033029   0.016834  -0.000000  -0.000000
   17  C  1  Z   -0.000000  -0.016834   0.033029  -0.000000  -0.000000
   18  C  1 XX   -0.000000  -0.000000  -0.000000  -0.000000  -0.854422
   19  C  1 YY   -0.000000  -0.000000  -0.000000  -0.000000  -0.837025
   20  C  1 ZZ   -0.000000  -0.000000  -0.000000  -0.000000  -0.837025
   21  C  1 XY   -0.000000  -0.000000  -0.000000  -0.000000  -0.000000
   22  C  1 XZ   -0.000000  -0.000000  -0.000000  -0.000000  -0.000000
   23  C  1 YZ   -0.000000  -0.000000  -0.000000  -0.000000  -0.000000
   24  C  1 XX   -0.000000  -0.000000  -0.000000  -0.000000  -3.533558
   25  C  1 YY   -0.000000  -0.000000  -0.000000  -0.000000  -3.517735
   26  C  1 ZZ   -0.000000  -0.000000  -0.000000  -0.000000  -3.517735
   27  C  1 XY   -0.000000  -0.000000  -0.000000  -0.000000  -0.000000
   28  C  1 XZ   -0.000000  -0.000000  -0.000000  -0.000000  -0.000000
   29  C  1 YZ   -0.000000  -0.000000  -0.000000  -0.000000  -0.000000
   30  C  1 XX   -0.000000  -0.000000  -0.000000  -0.000000  -1.924926
   31  C  1 YY   -0.000000  -0.000000  -0.000000  -0.000000  -1.933992
   32  C  1 ZZ   -0.000000  -0.000000  -0.000000  -0.000000  -1.933992
   33  C  1 XY   -0.000000  -0.000000  -0.000000  -0.000000  -0.000000
   34  C  1 XZ   -0.000000  -0.000000  -0.000000  -0.000000  -0.000000
   35  C  1 YZ   -0.000000  -0.000000  -0.000000  -0.000000  -0.000000
   36  C  1 XXX  -0.000000  -0.000000  -0.000000   1.082308  -0.000000
   37  C  1 YYY  -0.000000  -0.468173  -0.238620  -0.000000  -0.000000
   38  C  1 ZZZ  -0.000000   0.238620  -0.468173  -0.000000  -0.000000
   39  C  1 XXY  -0.000000   0.995951   0.507619  -0.000000  -0.000000
   40  C  1 XXZ  -0.000000  -0.507619   0.995951  -0.000000  -0.000000
   41  C  1 YYX   0.866010  -0.000000  -0.000000  -0.605309  -0.000000
   42  C  1 YYZ  -0.000000   0.106714  -0.209373  -0.000000  -0.000000
   43  C  1 ZZX  -0.866010  -0.000000  -0.000000  -0.605309  -0.000000
   44  C  1 ZZY  -0.000000  -0.209373  -0.106714  -0.000000  -0.000000
   45  C  1 XYZ  -0.005892  -0.000000  -0.000000  -0.000000  -0.000000

                     36         37         38         39         40
                    7.2980     7.2980     7.3493     7.3493     7.3666
                     A          A          A          A          A   
    1  C  1  S    0.000000   0.000000  -0.000000   0.000000   0.006123
    2  C  1  S    0.000000   0.000000  -0.000000   0.000000  -0.051123
    3  C  1  X    0.000000   0.000000  -0.000000   0.000000  -0.000000
    4  C  1  Y    0.000000   0.000000  -0.000000   0.000000  -0.000000
    5  C  1  Z    0.000000   0.000000  -0.000000   0.000000  -0.000000
    6  C  1  S    0.000000   0.000000  -0.000000   0.000000   0.208571
    7  C  1  X    0.000000   0.000000  -0.000000   0.000000  -0.000000
    8  C  1  Y    0.000000   0.000000  -0.000000   0.000000  -0.000000
    9  C  1  Z    0.000000   0.000000  -0.000000   0.000000  -0.000000
   10  C  1  S    0.000000   0.000000  -0.000000   0.000000   0.116814
   11  C  1  X    0.000000   0.000000  -0.000000   0.000000  -0.000000
   12  C  1  Y    0.000000   0.000000  -0.000000   0.000000  -0.000000
   13  C  1  Z    0.000000   0.000000  -0.000000   0.000000  -0.000000
   14  C  1  S    0.000000   0.000000  -0.000000   0.000000   0.010947
   15  C  1  X    0.000000   0.000000  -0.000000   0.000000  -0.000000
   16  C  1  Y    0.000000   0.000000  -0.000000   0.000000  -0.000000
   17  C  1  Z    0.000000   0.000000  -0.000000   0.000000  -0.000000
   18  C  1 XX    0.000000   0.000000  -0.000000   0.000000   1.097553
   19  C  1 YY    0.972072   0.183753  -0.000000   0.000000  -0.615735
   20  C  1 ZZ   -0.972072  -0.183753  -0.000000   0.000000  -0.615735
   21  C  1 XY    0.000000   0.000000   0.865901  -0.745080  -0.000000
   22  C  1 XZ    0.000000   0.000000   0.745080   0.865901  -0.000000
   23  C  1 YZ   -0.212179   1.122453  -0.000000   0.000000  -0.000000
   24  C  1 XX    0.000000   0.000000  -0.000000   0.000000  -0.702687
   25  C  1 YY   -0.514105  -0.097182  -0.000000   0.000000   0.208813
   26  C  1 ZZ    0.514105   0.097182  -0.000000   0.000000   0.208813
   27  C  1 XY    0.000000   0.000000  -0.460037   0.395847  -0.000000
   28  C  1 XZ    0.000000   0.000000  -0.395847  -0.460037  -0.000000
   29  C  1 YZ    0.112216  -0.593638  -0.000000   0.000000  -0.000000
   30  C  1 XX    0.000000   0.000000  -0.000000   0.000000   0.152676
   31  C  1 YY    0.153809   0.029075  -0.000000   0.000000  -0.118709
   32  C  1 ZZ   -0.153809  -0.029075  -0.000000   0.000000  -0.118709
   33  C  1 XY    0.000000   0.000000   0.137137  -0.118002  -0.000000
   34  C  1 XZ    0.000000   0.000000   0.118002   0.137137  -0.000000
   35  C  1 YZ   -0.033573   0.177603  -0.000000   0.000000  -0.000000
   36  C  1 XXX   0.000000   0.000000  -0.000000   0.000000  -0.000000
   37  C  1 YYY   0.000000   0.000000  -0.000000   0.000000  -0.000000
   38  C  1 ZZZ   0.000000   0.000000  -0.000000   0.000000  -0.000000
   39  C  1 XXY   0.000000   0.000000  -0.000000   0.000000  -0.000000
   40  C  1 XXZ   0.000000   0.000000  -0.000000   0.000000  -0.000000
   41  C  1 YYX   0.000000   0.000000  -0.000000   0.000000  -0.000000
   42  C  1 YYZ   0.000000   0.000000  -0.000000   0.000000  -0.000000
   43  C  1 ZZX   0.000000   0.000000  -0.000000   0.000000  -0.000000
   44  C  1 ZZY   0.000000   0.000000  -0.000000   0.000000  -0.000000
   45  C  1 XYZ   0.000000   0.000000  -0.000000   0.000000  -0.000000

                     41         42         43         44         45
                    8.6332     8.6332     8.6991     8.9382    30.0917
                     A          A          A          A          A   
    1  C  1  S   -0.000000  -0.000000  -0.000000   0.706799  -2.010402
    2  C  1  S   -0.000000  -0.000000  -0.000000  -3.288290   1.570290
    3  C  1  X   -0.000000  -0.000000  -3.529984  -0.000000  -0.000000
    4  C  1  Y   -3.461968  -0.721891   0.000000  -0.000000  -0.000000
    5  C  1  Z    0.721891  -3.461968   0.000000  -0.000000  -0.000000
    6  C  1  S   -0.000000  -0.000000  -0.000000  13.723976   4.028452
    7  C  1  X    0.000000   0.000000  14.791876  -0.000000  -0.000000
    8  C  1  Y   14.482348   3.019864  -0.000000  -0.000000  -0.000000
    9  C  1  Z   -3.019864  14.482348  -0.000000  -0.000000  -0.000000
   10  C  1  S   -0.000000  -0.000000  -0.000000   5.699588   0.493871
   11  C  1  X   -0.000000  -0.000000  -1.605232  -0.000000  -0.000000
   12  C  1  Y   -1.575242  -0.328470   0.000000  -0.000000  -0.000000
   13  C  1  Z    0.328470  -1.575242  -0.000000  -0.000000  -0.000000
   14  C  1  S   -0.000000  -0.000000  -0.000000   0.553884   0.033510
   15  C  1  X   -0.000000  -0.000000   0.403743  -0.000000  -0.000000
   16  C  1  Y    0.396774   0.082735  -0.000000  -0.000000  -0.000000
   17  C  1  Z   -0.082735   0.396774  -0.000000  -0.000000  -0.000000
   18  C  1 XX   -0.000000  -0.000000  -0.000000  -3.183160  -1.108430
   19  C  1 YY   -0.000000  -0.000000  -0.000000  -3.163627  -1.107220
   20  C  1 ZZ   -0.000000  -0.000000  -0.000000  -3.163627  -1.107220
   21  C  1 XY   -0.000000  -0.000000  -0.000000  -0.000000  -0.000000
   22  C  1 XZ   -0.000000  -0.000000  -0.000000  -0.000000  -0.000000
   23  C  1 YZ   -0.000000  -0.000000  -0.000000  -0.000000  -0.000000
   24  C  1 XX   -0.000000  -0.000000  -0.000000  -5.416340  -1.182463
   25  C  1 YY   -0.000000  -0.000000  -0.000000  -5.429275  -1.183124
   26  C  1 ZZ   -0.000000  -0.000000  -0.000000  -5.429275  -1.183124
   27  C  1 XY   -0.000000  -0.000000  -0.000000  -0.000000  -0.000000
   28  C  1 XZ   -0.000000  -0.000000  -0.000000  -0.000000  -0.000000
   29  C  1 YZ   -0.000000  -0.000000  -0.000000  -0.000000  -0.000000
   30  C  1 XX   -0.000000  -0.000000  -0.000000  -1.403960  -0.109796
   31  C  1 YY   -0.000000  -0.000000  -0.000000  -1.399478  -0.109607
   32  C  1 ZZ   -0.000000  -0.000000  -0.000000  -1.399478  -0.109607
   33  C  1 XY   -0.000000  -0.000000  -0.000000  -0.000000  -0.000000
   34  C  1 XZ   -0.000000  -0.000000  -0.000000  -0.000000  -0.000000
   35  C  1 YZ   -0.000000  -0.000000  -0.000000  -0.000000  -0.000000
   36  C  1 XXX  -0.000000  -0.000000  -7.795760  -0.000000  -0.000000
   37  C  1 YYY  -7.626862  -1.590356   0.000000  -0.000000  -0.000000
   38  C  1 ZZZ   1.590356  -7.626862   0.000000  -0.000000  -0.000000
   39  C  1 XXY  -3.412155  -0.711504   0.000000  -0.000000  -0.000000
   40  C  1 XXZ   0.711504  -3.412155   0.000000  -0.000000  -0.000000
   41  C  1 YYX  -0.000000  -0.000000  -3.485036  -0.000000  -0.000000
   42  C  1 YYZ   0.711229  -3.410836   0.000000  -0.000000  -0.000000
   43  C  1 ZZX  -0.000000  -0.000000  -3.485036  -0.000000  -0.000000
   44  C  1 ZZY  -3.410836  -0.711229   0.000000  -0.000000  -0.000000
   45  C  1 XYZ  -0.000000  -0.000000  -0.000000  -0.000000  -0.000000
 ...... END OF RHF CALCULATION ......
 STEP CPU TIME =     0.01 TOTAL CPU TIME =          0.0 (      0.0 MIN)
 TOTAL WALL CLOCK TIME=          0.1 SECONDS, CPU UTILIZATION IS    80.00%

     ----------------------------------------------------------------
     PROPERTY VALUES FOR THE RHF   SELF-CONSISTENT FIELD WAVEFUNCTION
     ----------------------------------------------------------------

          -----------------
          ENERGY COMPONENTS
          -----------------

         WAVEFUNCTION NORMALIZATION =       1.0000000000

                ONE ELECTRON ENERGY =     -50.3062907737
                TWO ELECTRON ENERGY =      12.7044279598
           NUCLEAR REPULSION ENERGY =       0.0000000000
                                      ------------------
                       TOTAL ENERGY =     -37.6018628139

 ELECTRON-ELECTRON POTENTIAL ENERGY =      12.7044279598
  NUCLEUS-ELECTRON POTENTIAL ENERGY =     -87.9011554001
   NUCLEUS-NUCLEUS POTENTIAL ENERGY =       0.0000000000
                                      ------------------
             TOTAL POTENTIAL ENERGY =     -75.1967274403
               TOTAL KINETIC ENERGY =      37.5948646264
                 VIRIAL RATIO (V/T) =       2.0001861474

          ---------------------------------------
          MULLIKEN AND LOWDIN POPULATION ANALYSES
          ---------------------------------------

     ATOMIC MULLIKEN POPULATION IN EACH MOLECULAR ORBITAL

                      1          2          3

                  2.000000   2.000000   2.000000

    1             2.000000   2.000000   2.000000

               ----- POPULATIONS IN EACH AO -----
                             MULLIKEN      LOWDIN
              1  C  1  S      1.10601     1.04341
              2  C  1  S      0.88871     0.89061
              3  C  1  X      0.37344     0.35563
              4  C  1  Y      0.00000     0.00000
              5  C  1  Z      0.00000     0.00000
              6  C  1  S      1.03881     0.41284
              7  C  1  X      0.81896     0.45856
              8  C  1  Y      0.00000     0.00000
              9  C  1  Z      0.00000     0.00000
             10  C  1  S      1.12477     0.40005
             11  C  1  X      0.73883     0.55366
             12  C  1  Y      0.00000     0.00000
             13  C  1  Z      0.00000     0.00000
             14  C  1  S      0.04820     0.09089
             15  C  1  X      0.06152     0.11655
             16  C  1  Y      0.00000     0.00000
             17  C  1  Z      0.00000     0.00000
             18  C  1 XX     -0.00375     0.09612
             19  C  1 YY     -0.00584     0.09414
             20  C  1 ZZ     -0.00584     0.09414
             21  C  1 XY      0.00000     0.00000
             22  C  1 XZ      0.00000     0.00000
             23  C  1 YZ      0.00000     0.00000
             24  C  1 XX     -0.02680     0.24337
             25  C  1 YY     -0.02903     0.23646
             26  C  1 ZZ     -0.02903     0.23646
             27  C  1 XY      0.00000     0.00000
             28  C  1 XZ      0.00000     0.00000
             29  C  1 YZ      0.00000     0.00000
             30  C  1 XX     -0.02627     0.05980
             31  C  1 YY     -0.03996     0.05087
             32  C  1 ZZ     -0.03996     0.05087
             33  C  1 XY      0.00000     0.00000
             34  C  1 XZ      0.00000     0.00000
             35  C  1 YZ      0.00000     0.00000
             36  C  1 XXX    -0.01371     0.25919
             37  C  1 YYY     0.00000     0.00000
             38  C  1 ZZZ     0.00000     0.00000
             39  C  1 XXY     0.00000     0.00000
             40  C  1 XXZ     0.00000     0.00000
             41  C  1 YYX     0.01048     0.12820
             42  C  1 YYZ     0.00000     0.00000
             43  C  1 ZZX     0.01048     0.12820
             44  C  1 ZZY     0.00000     0.00000
             45  C  1 XYZ     0.00000     0.00000

          ----- MULLIKEN ATOMIC OVERLAP POPULATIONS -----
          (OFF-DIAGONAL ELEMENTS NEED TO BE MULTIPLIED BY 2)

             1

    1    6.0000000

          TOTAL MULLIKEN AND LOWDIN ATOMIC POPULATIONS
       ATOM         MULL.POP.    CHARGE          LOW.POP.     CHARGE
    1 C             6.000000   -0.000000         6.000000    0.000000

          -------------------------------
          BOND ORDER AND VALENCE ANALYSIS     BOND ORDER THRESHOLD=0.050
          -------------------------------

                   BOND                       BOND                       BOND
  ATOM PAIR DIST  ORDER      ATOM PAIR DIST  ORDER      ATOM PAIR DIST  ORDER

                       TOTAL       BONDED        FREE
      ATOM            VALENCE     VALENCE     VALENCE
    1 C                -0.000       0.000      -0.000

          ---------------------
          ELECTROSTATIC MOMENTS
          ---------------------

 POINT   1           X           Y           Z (BOHR)    CHARGE
                 0.000000    0.000000    0.000000       -0.00 (A.U.)
         DX          DY          DZ         /D/  (DEBYE)
     0.000000    0.000000    0.000000    0.000000
 ...... END OF PROPERTY EVALUATION ......
 STEP CPU TIME =     0.00 TOTAL CPU TIME =          0.0 (      0.0 MIN)
 TOTAL WALL CLOCK TIME=          0.1 SECONDS, CPU UTILIZATION IS    66.67%
               580000  WORDS OF DYNAMIC MEMORY USED
 EXECUTION OF GAMESS TERMINATED NORMALLY Fri Jun 14 00:04:22 2019
 DDI: 263640 bytes (0.3 MB / 0 MWords) used by master data server.

 ----------------------------------------
 CPU timing information for all processes
 ========================================
 0: 0.36 + 0.16 = 0.52
 ----------------------------------------
 ddikick.x: exited gracefully.
----- accounting info -----
Files used on the master node amlan-PT-3420 were:
-rw-rw-r-- 1 akroy akroy   34313 Jun 14 00:04 /tmp/c_atom_6_311g3df3pd_all.dat
-rw-rw-r-- 1 akroy akroy     242 Jun 14 00:04 /tmp/c_atom_6_311g3df3pd_all.F05
-rw-rw-r-- 1 akroy akroy  900080 Jun 14 00:04 /tmp/c_atom_6_311g3df3pd_all.F08
-rw-rw-r-- 1 akroy akroy 1537840 Jun 14 00:04 /tmp/c_atom_6_311g3df3pd_all.F10
Fri Jun 14 00:04:25 IST 2019
0.0u 0.0s 0:03.20 1.5% 0+0k 0+16io 0pf+0w
