----- GAMESS execution script 'rungms' -----
This job is running on host amlan-PT-3420
under operating system Linux at Wed Jun 12 15:17:34 IST 2019
Available scratch disk space (Kbyte units) at beginning of the job is
Filesystem      1K-blocks     Used  Available Use% Mounted on
/dev/sda3      1916812448 56942588 1762478348   4% /
GAMESS temporary binary files will be written to /tmp
GAMESS supplementary output files will be written to /tmp
Copying input file be_atom_6_31g_all.inp to your run's scratch directory...

 Distributed Data Interface kickoff program.
 Initiating 1 compute processes on 1 nodes to run the following command:
 /home/akroy/gamess/gamess.01.x be_atom_6_31g_all 

          ******************************************************
          *         GAMESS VERSION = 30 SEP 2018 (R3)         *
          *             FROM IOWA STATE UNIVERSITY             *
          * M.W.SCHMIDT, K.K.BALDRIDGE, J.A.BOATZ, S.T.ELBERT, *
          *   M.S.GORDON, J.H.JENSEN, S.KOSEKI, N.MATSUNAGA,   *
          *          K.A.NGUYEN, S.J.SU, T.L.WINDUS,           *
          *       TOGETHER WITH M.DUPUIS, J.A.MONTGOMERY       *
          *         J.COMPUT.CHEM.  14, 1347-1363(1993)        *
          **************** 64 BIT LINUX VERSION ****************

  SINCE 1993, STUDENTS AND POSTDOCS WORKING AT IOWA STATE UNIVERSITY
  AND ALSO IN THEIR VARIOUS JOBS AFTER LEAVING ISU HAVE MADE IMPORTANT
  CONTRIBUTIONS TO THE CODE:
     IVANA ADAMOVIC, CHRISTINE AIKENS, YURI ALEXEEV, POOJA ARORA,
     ANDREY ASADCHEV, ROB BELL, PRADIPTA BANDYOPADHYAY, JONATHAN BENTZ,
     BRETT BODE, KURT BRORSEN, CALEB CARLIN, GALINA CHABAN, WEI CHEN,
     CHEOL HO CHOI, PAUL DAY, ALBERT DEFUSCO, NUWAN DESILVA, TIM DUDLEY,
     DMITRI FEDOROV, ALEX FINDLATER, GRAHAM FLETCHER, MARK FREITAG,
     KURT GLAESEMANN, ANASTASIA GUNINA,
     DAN KEMP, GRANT MERRILL, NORIYUKI MINEZAWA, JONATHAN MULLIN,
     TAKESHI NAGATA, SEAN NEDD, HEATHER NETZLOFF, BOSILJKA NJEGIC, RYAN OLSON,
     MIKE PAK, BUU PHAM,
     SPENCER PRUITT, LUKE ROSKOP, JIM SHOEMAKER, LYUDMILA SLIPCHENKO,
     TONY SMITH, SAROM SOK LEANG, JIE SONG, TETSUYA TAKETSUGU, SIMON WEBB,
     PENG XU, SOOHAENG YOO, FEDERICO ZAHARIEV

  ADDITIONAL CODE HAS BEEN PROVIDED BY COLLABORATORS IN OTHER GROUPS:
     IOWA STATE UNIVERSITY:
          JOE IVANIC, AARON WEST, LAIMUTIS BYTAUTAS, KLAUS RUEDENBERG
     UNIVERSITY OF TOKYO: KIMIHIKO HIRAO, TAKAHITO NAKAJIMA,
          TAKAO TSUNEDA, MUNEAKI KAMIYA, SUSUMU YANAGISAWA,
          KIYOSHI YAGI, MAHITO CHIBA, SEIKEN TOKURA, NAOAKI KAWAKAMI
     UNIVERSITY OF AARHUS: FRANK JENSEN
     UNIVERSITY OF IOWA: VISVALDAS KAIRYS, HUI LI
     NATIONAL INST. OF STANDARDS AND TECHNOLOGY: WALT STEVENS, DAVID GARMER
     UNIVERSITY OF PISA: BENEDETTA MENNUCCI, JACOPO TOMASI
     UNIVERSITY OF MEMPHIS: HENRY KURTZ, PRAKASHAN KORAMBATH
     UNIVERSITY OF ALBERTA: TOBY ZENG, MARIUSZ KLOBUKOWSKI
     UNIVERSITY OF NEW ENGLAND: MARK SPACKMAN
     MIE UNIVERSITY: HIROAKI UMEDA
     NAT. INST. OF ADVANCED INDUSTRIAL SCIENCE AND TECHNOLOGY: KAZUO KITAURA
     MICHIGAN STATE UNIVERSITY:
          KAROL KOWALSKI, MARTA WLOCH, JEFFREY GOUR, JESSE LUTZ,
          WEI LI, JUN SHEN, J. EMILIANO DEUSTUA, PIOTR PIECUCH
     UNIVERSITY OF MINNESOTA:
          YINAN SHU
     UNIVERSITY OF SILESIA: MONIKA MUSIAL, STANISLAW KUCHARSKI
     FACULTES UNIVERSITAIRES NOTRE-DAME DE LA PAIX:
          OLIVIER QUINET, BENOIT CHAMPAGNE
     UNIVERSITY OF CALIFORNIA - SANTA BARBARA: BERNARD KIRTMAN
     INSTITUTE FOR MOLECULAR SCIENCE:
          KAZUYA ISHIMURA, MICHIO KATOUDA, AND SHIGERU NAGASE
     UNIVERSITY OF NOTRE DAME: ANNA POMOGAEVA, DAN CHIPMAN
     KYUSHU UNIVERSITY:
          HARUYUKI NAKANO,
          FENG LONG GU, JACEK KORCHOWIEC, MARCIN MAKOWSKI, AND YURIKO AOKI,
          HIROTOSHI MORI AND EISAKU MIYOSHI
     PENNSYLVANIA STATE UNIVERSITY:
          TZVETELIN IORDANOV, CHET SWALINA, JONATHAN SKONE,
          SHARON HAMMES-SCHIFFER
     WASEDA UNIVERSITY:
          MASATO KOBAYASHI, TOMOKO AKAMA, TSUGUKI TOUMA,
          TAKESHI YOSHIKAWA, YASUHIRO IKABATA, JUNJI SEINO,
          YUYA NAKAJIMA, HIROMI NAKAI
     NANJING UNIVERSITY: SHUHUA LI
     UNIVERSITY OF NEBRASKA:
          PEIFENG SU, DEJUN SI, NANDUN THELLAMUREGE, YALI WANG, HUI LI
     UNIVERSITY OF ZURICH: ROBERTO PEVERATI, KIM BALDRIDGE
     N. COPERNICUS UNIVERSITY AND JACKSON STATE UNIVERSITY:
          MARIA BARYSZ
     UNIVERSITY OF COPENHAGEN: Jimmy Kromann, CASPER STEINMANN
     TOKYO INSTITUTE OF TECHNOLOGY: HIROYA NAKATA
     NAGOYA UNIVERSITY: YOSHIO NISHIMOTO, STEPHAN IRLE
     MOSCOW STATE UNIVERSITY: VLADIMIR MIRONOV

 EXECUTION OF GAMESS BEGUN Wed Jun 12 15:17:34 2019

            ECHO OF THE FIRST FEW INPUT CARDS -
 INPUT CARD> $CONTRL SCFTYP=RHF COORD=CART MULT=1 RUNTYP=ENERGY  $END                       
 INPUT CARD> $SYSTEM TIMLIM=2000 $END                                                       
 INPUT CARD> $DFT METHOD=GRID DFTTYP=NONE $END                                              
 INPUT CARD> $BASIS EXTFIL=.TRUE. GBASIS=6-31G $END                                         
 INPUT CARD> $GUESS GUESS=HUCKEL $END                                                       
 INPUT CARD> $DATA                                                                          
 INPUT CARD>BE                                                                              
 INPUT CARD>C1                                                                              
 INPUT CARD>BE   4.0   0.0000   0.0000   0.0000                                             
 INPUT CARD> $END                                                                           
 INPUT CARD>                                                                                
    1000000 WORDS OF MEMORY AVAILABLE


                    * * * WARNING * * *
 OLD KEYWORD COORD=CART SELECTED, AUTOMATICALLY CHANGED TO COORD=PRINAXIS.
 YOUR MOLECULE'S COORDINATES WILL BE CHANGED TO PRINCIPAL AXES BY
   A) TRANSLATION TO THE CENTER OF MASS, THEN
   B) ROTATION TO HAVE A DIAGONAL MOMENT OF INERTIA TENSOR.

 HOWEVER, NOTHING ELSE IN YOUR INPUT WILL BE ROTATED IN THE SAME WAY,
 SO IF YOU HAVE A $VEC, $VIB, $GRAD, $HESS, EFP PARTICLE COORDINATES,
 OR ANYTHING ELSE THAT DEPENDS ON THE INITIAL ORIENTATION, THAT DATA
 WILL NOT BE USED CORRECTLY IN THIS RUN.

 THE PURPOSE OF COORD=PRINAXIS IS TO BE USED ONCE, ONLY AT THE VERY
 BEGINNING OF A SERIES OF COMPUTATIONS, PERHAPS TO FIND THE SYMMETRY
 UNIQUE ATOMS FROM AN ARBITRARY INITIAL ORIENTATION.

 AFTER THE FIRST RUN, YOU SHOULD USE ONLY COORD=UNIQUE, TO ENSURE THAT
 THE COORDINATES WHICH YOU READ IN ARE THE COORDINATES THAT ARE USED.


     $BASIS REQUESTS READING THE "6-31G   " BASIS SET FROM AN EXTERNAL FILE


     RUN TITLE
     ---------
 BE                                                                              

 THE POINT GROUP OF THE MOLECULE IS C1      
 THE ORDER OF THE PRINCIPAL AXIS IS     0

 THE MOMENTS OF INERTIA ARE (AMU-ANGSTROM**2)
 IXX=     0.000   IYY=     0.000   IZZ=     0.000

 THE EXTERNAL BASIS SET FILE BEING READ IS
     "/home/akroy/gamess/EXTFILE.txt"

 ATOM      ATOMIC                      COORDINATES (BOHR)
           CHARGE         X                   Y                   Z
 BE          4.0     0.0000000000        0.0000000000        0.0000000000

          INTERNUCLEAR DISTANCES (ANGS.)
          ------------------------------

                1 BE    

   1 BE      0.0000000  

  * ... LESS THAN  3.000


     ATOMIC BASIS SET
     ----------------
 THE CONTRACTED PRIMITIVE FUNCTIONS HAVE BEEN UNNORMALIZED
 THE CONTRACTED BASIS FUNCTIONS ARE NOW NORMALIZED TO UNITY

  SHELL TYPE  PRIMITIVE        EXPONENT          CONTRACTION COEFFICIENT(S)

 BE        

      1   S       1          1264.5856900    0.001944757590
      1   S       2           189.9368060    0.014835052000
      1   S       3            43.1590890    0.072090546289
      1   S       4            12.0986627    0.237154149996
      1   S       5             3.8063232    0.469198651892
      1   S       6             1.2728903    0.356520227894

      2   L       7             3.1964631   -0.112648728544    0.055980199801
      2   L       8             0.7478133   -0.229506407990    0.261550611002
      2   L       9             0.2199663    1.186916764468    0.793972338907

      3   L      10             0.0823099    1.000000000000    1.000000000000

      4   L      11             0.0207000    1.000000000000    1.000000000000

      5   D      12             0.4000000    1.000000000000

 TOTAL NUMBER OF BASIS SET SHELLS             =    5
 NUMBER OF CARTESIAN GAUSSIAN BASIS FUNCTIONS =   19
 NUMBER OF ELECTRONS                          =    4
 CHARGE OF MOLECULE                           =    0
 SPIN MULTIPLICITY                            =    1
 NUMBER OF OCCUPIED ORBITALS (ALPHA)          =    2
 NUMBER OF OCCUPIED ORBITALS (BETA )          =    2
 TOTAL NUMBER OF ATOMS                        =    1
 THE NUCLEAR REPULSION ENERGY IS        0.0000000000

 THIS MOLECULE IS RECOGNIZED AS BEING LINEAR,
 ORBITAL LZ DEGENERACY TOLERANCE ETOLLZ= 1.00E-06

     $CONTRL OPTIONS
     ---------------
 SCFTYP=RHF          RUNTYP=ENERGY       EXETYP=RUN     
 MPLEVL=       0     CITYP =NONE         CCTYP =NONE         VBTYP =NONE    
 DFTTYP=NONE         TDDFT =NONE    
 MULT  =       1     ICHARG=       0     NZVAR =       0     COORD =PRINAXIS
 PP    =NONE         RELWFN=NONE         LOCAL =NONE         NUMGRD=       F
 ISPHER=      -1     NOSYM =       0     MAXIT =      30     UNITS =ANGS    
 PLTORB=       F     MOLPLT=       F     AIMPAC=       F     FRIEND=        
 NPRINT=       7     IREST =       0     GEOM  =INPUT   
 NORMF =       0     NORMP =       0     ITOL  =      20     ICUT  =       9
 INTTYP=BEST         GRDTYP=BEST         QMTTOL= 1.0E-06

     $SYSTEM OPTIONS
     ---------------
  REPLICATED MEMORY=     1000000 WORDS (ON EVERY NODE).
 DISTRIBUTED MEMDDI=           0 MILLION WORDS IN AGGREGATE,
 MEMDDI DISTRIBUTED OVER   1 PROCESSORS IS           0 WORDS/PROCESSOR.
 TOTAL MEMORY REQUESTED ON EACH PROCESSOR=     1000000 WORDS.
 TIMLIM=        2000.00 MINUTES, OR       1.4 DAYS.
 PARALL= F  BALTYP=  DLB     KDIAG=    0  COREFL= F
 MXSEQ2=     300 MXSEQ3=     150  mem10=         0

          ----------------
          PROPERTIES INPUT
          ----------------

     MOMENTS            FIELD           POTENTIAL          DENSITY
 IEMOM =       1   IEFLD =       0   IEPOT =       0   IEDEN =       0
 WHERE =COMASS     WHERE =NUCLEI     WHERE =NUCLEI     WHERE =NUCLEI  
 OUTPUT=BOTH       OUTPUT=BOTH       OUTPUT=BOTH       OUTPUT=BOTH    
 IEMINT=       0   IEFINT=       0                     IEDINT=       0
                                                       MORB  =       0
          EXTRAPOLATION IN EFFECT
          SOSCF IN EFFECT
 ORBITAL PRINTING OPTION: NPREO=     1    19     2     1

     -------------------------------
     INTEGRAL TRANSFORMATION OPTIONS
     -------------------------------
     NWORD  =            0
     CUTOFF = 1.0E-09     MPTRAN =       0
     DIRTRF =       F     AOINTS =DUP     

          ----------------------
          INTEGRAL INPUT OPTIONS
          ----------------------
 NOPK  =       1 NORDER=       0 SCHWRZ=       F

     ------------------------------------------
     THE POINT GROUP IS C1 , NAXIS= 0, ORDER= 1
     ------------------------------------------

     DIMENSIONS OF THE SYMMETRY SUBSPACES ARE
 A   =   19

 ..... DONE SETTING UP THE RUN .....
 STEP CPU TIME =     0.00 TOTAL CPU TIME =          0.0 (      0.0 MIN)
 TOTAL WALL CLOCK TIME=          0.0 SECONDS, CPU UTILIZATION IS     0.00%

          ********************
          1 ELECTRON INTEGRALS
          ********************
 ...... END OF ONE-ELECTRON INTEGRALS ......
 STEP CPU TIME =     0.00 TOTAL CPU TIME =          0.0 (      0.0 MIN)
 TOTAL WALL CLOCK TIME=          0.0 SECONDS, CPU UTILIZATION IS     0.00%

          -------------
          GUESS OPTIONS
          -------------
          GUESS =HUCKEL            NORB  =       0          NORDER=       0
          MIX   =       F          PRTMO =       F          PUNMO =       F
          TOLZ  = 1.0E-08          TOLE  = 1.0E-05
          SYMDEN=       F          PURIFY=       F

 INITIAL GUESS ORBITALS GENERATED BY HUCKEL   ROUTINE.
 HUCKEL GUESS REQUIRES      3500 WORDS.

 SYMMETRIES FOR INITIAL GUESS ORBITALS FOLLOW.   BOTH SET(S).
     2 ORBITALS ARE OCCUPIED (    1 CORE ORBITALS).
     2=A        3=A        4=A        5=A        6=A        7=A        8=A   
     9=A       10=A       11=A       12=A   
 ...... END OF INITIAL ORBITAL SELECTION ......
 STEP CPU TIME =     0.00 TOTAL CPU TIME =          0.0 (      0.0 MIN)
 TOTAL WALL CLOCK TIME=          0.0 SECONDS, CPU UTILIZATION IS     0.00%

                    ----------------------
                    AO INTEGRAL TECHNOLOGY
                    ----------------------
     S,P,L SHELL ROTATED AXIS INTEGRALS, REPROGRAMMED BY
        KAZUYA ISHIMURA (IMS) AND JOSE SIERRA (SYNSTAR).
     S,P,D,L SHELL ROTATED AXIS INTEGRALS PROGRAMMED BY
        KAZUYA ISHIMURA (INSTITUTE FOR MOLECULAR SCIENCE).
     S,P,D,F,G SHELL TO TOTAL QUARTET ANGULAR MOMENTUM SUM 5,
        ERIC PROGRAM BY GRAHAM FLETCHER (ELORET AND NASA ADVANCED
        SUPERCOMPUTING DIVISION, AMES RESEARCH CENTER).
     S,P,D,F,G,L SHELL GENERAL RYS QUADRATURE PROGRAMMED BY
        MICHEL DUPUIS (PACIFIC NORTHWEST NATIONAL LABORATORY).

          --------------------
          2 ELECTRON INTEGRALS
          --------------------

 THE -PK- OPTION IS OFF, THE INTEGRALS ARE NOT IN SUPERMATRIX FORM.
 STORING   15000 INTEGRALS/RECORD ON DISK, USING 12 BYTES/INTEGRAL.
 TWO ELECTRON INTEGRAL EVALUATION REQUIRES   90411 WORDS OF MEMORY.
 II,JST,KST,LST =  1  1  1  1 NREC =         1 INTLOC =    1
 II,JST,KST,LST =  2  1  1  1 NREC =         1 INTLOC =    2
 II,JST,KST,LST =  3  1  1  1 NREC =         1 INTLOC =   34
 II,JST,KST,LST =  4  1  1  1 NREC =         1 INTLOC =  214
 II,JST,KST,LST =  5  1  1  1 NREC =         1 INTLOC =  776
 TOTAL NUMBER OF NONZERO TWO-ELECTRON INTEGRALS =                2863
          1 INTEGRAL RECORDS WERE STORED ON DISK FILE  8.
  ...... END OF TWO-ELECTRON INTEGRALS .....
 STEP CPU TIME =     0.02 TOTAL CPU TIME =          0.0 (      0.0 MIN)
 TOTAL WALL CLOCK TIME=          0.0 SECONDS, CPU UTILIZATION IS    66.67%

          --------------------------
                 RHF SCF CALCULATION
          --------------------------

     NUCLEAR ENERGY =         0.0000000000
     MAXIT =   30     NPUNCH=    2
     EXTRAP=T  DAMP=F  SHIFT=F  RSTRCT=F  DIIS=F  DEM=F  SOSCF=T
     DENSITY MATRIX CONV=  1.00E-05
     SOSCF WILL OPTIMIZE      34 ORBITAL ROTATIONS, SOGTOL=   0.250
     MEMORY REQUIRED FOR RHF ITERS=     32929 WORDS.

 ITER EX DEM     TOTAL ENERGY        E CHANGE  DENSITY CHANGE     ORB. GRAD
   1  0  0      -14.5515221031   -14.5515221031   0.538875427   0.000000000
          ---------------START SECOND ORDER SCF---------------
   2  1  0      -14.5692101526    -0.0176880494   0.044096335   0.007482090
   3  2  0      -14.5696994123    -0.0004892598   0.010395934   0.001831942
   4  3  0      -14.5697318021    -0.0000323897   0.002237457   0.000228460
   5  4  0      -14.5697319966    -0.0000001946   0.000687682   0.000046312
   6  5  0      -14.5697320064    -0.0000000098   0.000015345   0.000002731
   7  6  0      -14.5697320064    -0.0000000000   0.000001171   0.000000463
   8  7  0      -14.5697320064    -0.0000000000   0.000000000   0.000000000

          -----------------
          DENSITY CONVERGED
          -----------------
     TIME TO FORM FOCK OPERATORS=       0.0 SECONDS (       0.0 SEC/ITER)
     TIME TO SOLVE SCF EQUATIONS=       0.0 SECONDS (       0.0 SEC/ITER)

 FINAL RHF ENERGY IS      -14.5697320064 AFTER   8 ITERATIONS

 LZ VALUE ANALYSIS FOR THE MOS
 ----------------------------------------
 MO     1 (    1) HAS LZ(WEIGHT)= 0.00(100.0%) 
 MO     2 (    2) HAS LZ(WEIGHT)= 0.00(100.0%) 
 MO     3 (    3) HAS LZ(WEIGHT)=-1.00( 49.9%)  1.00( 49.9%) 
 MO     4 (    3) HAS LZ(WEIGHT)=-1.00( 35.5%)  0.00( 29.1%)  1.00( 35.5%) 
 MO     5 (    3) HAS LZ(WEIGHT)=-1.00( 14.6%)  0.00( 70.8%)  1.00( 14.6%) 
 MO     6 (    4) HAS LZ(WEIGHT)= 0.00(100.0%) 
 MO     7 (    5) HAS LZ(WEIGHT)=-1.00( 47.1%)  0.00(  5.8%)  1.00( 47.1%) 
 MO     8 (    5) HAS LZ(WEIGHT)=-1.00( 19.1%)  0.00( 61.8%)  1.00( 19.1%) 
 MO     9 (    5) HAS LZ(WEIGHT)=-1.00( 33.8%)  0.00( 32.3%)  1.00( 33.8%) 
 MO    10 (    6) HAS LZ(WEIGHT)=-1.00( 23.3%)  0.00( 53.3%)  1.00( 23.3%) 
 MO    11 (    6) HAS LZ(WEIGHT)=-1.00( 37.5%)  0.00( 25.0%)  1.00( 37.5%) 
 MO    12 (    6) HAS LZ(WEIGHT)=-1.00( 39.1%)  0.00( 21.7%)  1.00( 39.1%) 
 MO    13 (    7) HAS LZ(WEIGHT)= 0.00(100.0%) 
 MO    14 (    8) HAS LZ(WEIGHT)=-2.00(  1.9%) -1.00( 48.1%)  1.00( 48.1%)  2.00(  1.9%) 
 MO    15 (    8) HAS LZ(WEIGHT)=-2.00( 36.5%) -1.00( 13.5%)  1.00( 13.5%)  2.00( 36.5%) 
 MO    16 (    8) HAS LZ(WEIGHT)=-2.00( 11.7%) -1.00( 38.1%)  1.00( 38.1%)  2.00( 11.7%) 
 MO    17 (    8) HAS LZ(WEIGHT)=-2.00( 26.9%)  0.00( 46.2%)  2.00( 26.9%) 
 MO    18 (    8) HAS LZ(WEIGHT)=-2.00( 22.9%)  0.00( 53.5%)  2.00( 22.9%) 
 MO    19 (    9) HAS LZ(WEIGHT)= 0.00(100.0%) 

          ------------
          EIGENVECTORS
          ------------

                      1          2          3          4          5
                   -4.7237    -0.3073     0.0299     0.0299     0.0299
                     A          A          A          A          A   
    1  BE 1  S    0.998499  -0.212801  -0.000000   0.000000   0.000000
    2  BE 1  S    0.008763   0.297050  -0.000000   0.000000   0.000000
    3  BE 1  X   -0.000000  -0.000000   0.173173   0.057194   0.043412
    4  BE 1  Y   -0.000000  -0.000000  -0.071537   0.147178   0.091464
    5  BE 1  Z   -0.000000  -0.000000  -0.006178  -0.101055   0.157779
    6  BE 1  S   -0.006874   0.644031  -0.000000   0.000000   0.000000
    7  BE 1  X   -0.000000  -0.000000   0.108685   0.035895   0.027246
    8  BE 1  Y   -0.000000  -0.000000  -0.044898   0.092370   0.057404
    9  BE 1  Z   -0.000000  -0.000000  -0.003877  -0.063423   0.099024
   10  BE 1  S    0.001576   0.117136  -0.000000   0.000000   0.000000
   11  BE 1  X   -0.000000  -0.000000   0.794435   0.262378   0.199154
   12  BE 1  Y   -0.000000  -0.000000  -0.328179   0.675183   0.419592
   13  BE 1  Z   -0.000000  -0.000000  -0.028341  -0.463591   0.723817
   14  BE 1 XX    0.003481   0.012915  -0.000000   0.000000   0.000000
   15  BE 1 YY    0.003481   0.012915  -0.000000   0.000000   0.000000
   16  BE 1 ZZ    0.003481   0.012915  -0.000000   0.000000   0.000000
   17  BE 1 XY   -0.000000  -0.000000  -0.000000   0.000000   0.000000
   18  BE 1 XZ   -0.000000  -0.000000  -0.000000   0.000000   0.000000
   19  BE 1 YZ   -0.000000  -0.000000  -0.000000   0.000000   0.000000

                      6          7          8          9         10
                    0.0636     0.1212     0.1212     0.1212     0.5079
                     A          A          A          A          A   
    1  BE 1  S    0.111144   0.000000   0.000000   0.000000  -0.000000
    2  BE 1  S    0.092577   0.000000   0.000000   0.000000  -0.000000
    3  BE 1  X   -0.000000   0.155158  -0.161986  -0.158108  -0.882105
    4  BE 1  Y   -0.000000   0.216414   0.049969   0.161182   0.313775
    5  BE 1  Z   -0.000000   0.066351   0.215813  -0.155993  -1.000438
    6  BE 1  S   -1.132516   0.000000   0.000000   0.000000  -0.000000
    7  BE 1  X   -0.000000   0.528164  -0.551406  -0.538206   0.901438
    8  BE 1  Y   -0.000000   0.736683   0.170096   0.548670  -0.320652
    9  BE 1  Z   -0.000000   0.225861   0.734636  -0.531007   1.022364
   10  BE 1  S    1.465816   0.000000   0.000000   0.000000  -0.000000
   11  BE 1  X   -0.000000  -0.474218   0.495086   0.483234  -0.285764
   12  BE 1  Y   -0.000000  -0.661439  -0.152723  -0.492629   0.101649
   13  BE 1  Z   -0.000000  -0.202792  -0.659601   0.476770  -0.324098
   14  BE 1 XX   -0.012793   0.000000   0.000000   0.000000  -0.000000
   15  BE 1 YY   -0.012793   0.000000   0.000000   0.000000  -0.000000
   16  BE 1 ZZ   -0.012793   0.000000   0.000000   0.000000  -0.000000
   17  BE 1 XY   -0.000000   0.000000   0.000000   0.000000  -0.000000
   18  BE 1 XZ   -0.000000   0.000000   0.000000   0.000000  -0.000000
   19  BE 1 YZ   -0.000000   0.000000   0.000000   0.000000  -0.000000

                     11         12         13         14         15
                    0.5079     0.5079     0.5495     1.0591     1.0591
                     A          A          A          A          A   
    1  BE 1  S    0.000000   0.000000  -0.054009  -0.000000   0.000000
    2  BE 1  S    0.000000   0.000000  -2.517043  -0.000000   0.000000
    3  BE 1  X   -1.002410   0.307415  -0.000000  -0.000000   0.000000
    4  BE 1  Y   -0.635709  -1.172544  -0.000000  -0.000000   0.000000
    5  BE 1  Z    0.684462  -0.638808  -0.000000  -0.000000   0.000000
    6  BE 1  S    0.000000   0.000000   2.803129  -0.000000   0.000000
    7  BE 1  X    1.024380  -0.314153  -0.000000  -0.000000   0.000000
    8  BE 1  Y    0.649642   1.198243  -0.000000  -0.000000   0.000000
    9  BE 1  Z   -0.699463   0.652809  -0.000000  -0.000000   0.000000
   10  BE 1  S    0.000000   0.000000  -0.823557  -0.000000   0.000000
   11  BE 1  X   -0.324737   0.099589  -0.000000  -0.000000   0.000000
   12  BE 1  Y   -0.205942  -0.379853  -0.000000  -0.000000   0.000000
   13  BE 1  Z    0.221736  -0.206946  -0.000000  -0.000000   0.000000
   14  BE 1 XX    0.000000   0.000000   0.068198   0.017547   0.030932
   15  BE 1 YY    0.000000   0.000000   0.068198  -0.005364  -0.009009
   16  BE 1 ZZ    0.000000   0.000000   0.068198  -0.012183  -0.021923
   17  BE 1 XY    0.000000   0.000000  -0.000000   0.196530   0.853602
   18  BE 1 XZ    0.000000   0.000000  -0.000000   0.974072  -0.225988
   19  BE 1 YZ    0.000000   0.000000  -0.000000  -0.110616  -0.468274

                     16         17         18         19
                    1.0591     1.0591     1.0591     2.8393
                     A          A          A          A   
    1  BE 1  S   -0.000000   0.000000   0.000000  -0.311781
    2  BE 1  S   -0.000000   0.000000   0.000000   6.700132
    3  BE 1  X   -0.000000   0.000000   0.000000   0.000000
    4  BE 1  Y   -0.000000   0.000000   0.000000   0.000000
    5  BE 1  Z   -0.000000   0.000000   0.000000   0.000000
    6  BE 1  S   -0.000000   0.000000   0.000000  -0.421932
    7  BE 1  X   -0.000000   0.000000   0.000000   0.000000
    8  BE 1  Y   -0.000000   0.000000   0.000000   0.000000
    9  BE 1  Z   -0.000000   0.000000   0.000000   0.000000
   10  BE 1  S   -0.000000   0.000000   0.000000  -0.011956
   11  BE 1  X   -0.000000   0.000000   0.000000   0.000000
   12  BE 1  Y   -0.000000   0.000000   0.000000   0.000000
   13  BE 1  Z   -0.000000   0.000000   0.000000   0.000000
   14  BE 1 XX   -0.068007  -0.295529   0.952246  -2.844917
   15  BE 1 YY    0.014639   0.975104  -0.221014  -2.844917
   16  BE 1 ZZ    0.053368  -0.679575  -0.731232  -2.844917
   17  BE 1 XY    0.482408   0.002612   0.003914   0.000000
   18  BE 1 XZ    0.003123   0.000935  -0.010095   0.000000
   19  BE 1 YZ    0.873011   0.000000   0.079598   0.000000
 ...... END OF RHF CALCULATION ......
 STEP CPU TIME =     0.00 TOTAL CPU TIME =          0.0 (      0.0 MIN)
 TOTAL WALL CLOCK TIME=          0.0 SECONDS, CPU UTILIZATION IS    66.67%

     ----------------------------------------------------------------
     PROPERTY VALUES FOR THE RHF   SELF-CONSISTENT FIELD WAVEFUNCTION
     ----------------------------------------------------------------

          -----------------
          ENERGY COMPONENTS
          -----------------

         WAVEFUNCTION NORMALIZATION =       1.0000000000

                ONE ELECTRON ENERGY =     -19.0773008751
                TWO ELECTRON ENERGY =       4.5075688687
           NUCLEAR REPULSION ENERGY =       0.0000000000
                                      ------------------
                       TOTAL ENERGY =     -14.5697320064

 ELECTRON-ELECTRON POTENTIAL ENERGY =       4.5075688687
  NUCLEUS-ELECTRON POTENTIAL ENERGY =     -33.7140409764
   NUCLEUS-NUCLEUS POTENTIAL ENERGY =       0.0000000000
                                      ------------------
             TOTAL POTENTIAL ENERGY =     -29.2064721076
               TOTAL KINETIC ENERGY =      14.6367401012
                 VIRIAL RATIO (V/T) =       1.9954219249

          ---------------------------------------
          MULLIKEN AND LOWDIN POPULATION ANALYSES
          ---------------------------------------

     ATOMIC MULLIKEN POPULATION IN EACH MOLECULAR ORBITAL

                      1          2

                  2.000000   2.000000

    1             2.000000   2.000000

               ----- POPULATIONS IN EACH AO -----
                             MULLIKEN      LOWDIN
              1  BE 1  S      2.00079     1.99545
              2  BE 1  S      0.53742     0.41839
              3  BE 1  X      0.00000     0.00000
              4  BE 1  Y      0.00000     0.00000
              5  BE 1  Z      0.00000     0.00000
              6  BE 1  S      1.24240     0.75383
              7  BE 1  X      0.00000     0.00000
              8  BE 1  Y      0.00000     0.00000
              9  BE 1  Z      0.00000     0.00000
             10  BE 1  S      0.16616     0.29535
             11  BE 1  X      0.00000     0.00000
             12  BE 1  Y      0.00000     0.00000
             13  BE 1  Z      0.00000     0.00000
             14  BE 1 XX      0.01774     0.17899
             15  BE 1 YY      0.01774     0.17899
             16  BE 1 ZZ      0.01774     0.17899
             17  BE 1 XY      0.00000     0.00000
             18  BE 1 XZ      0.00000     0.00000
             19  BE 1 YZ      0.00000     0.00000

          ----- MULLIKEN ATOMIC OVERLAP POPULATIONS -----
          (OFF-DIAGONAL ELEMENTS NEED TO BE MULTIPLIED BY 2)

             1

    1    4.0000000

          TOTAL MULLIKEN AND LOWDIN ATOMIC POPULATIONS
       ATOM         MULL.POP.    CHARGE          LOW.POP.     CHARGE
    1 BE            4.000000    0.000000         4.000000    0.000000

          -------------------------------
          BOND ORDER AND VALENCE ANALYSIS     BOND ORDER THRESHOLD=0.050
          -------------------------------

                   BOND                       BOND                       BOND
  ATOM PAIR DIST  ORDER      ATOM PAIR DIST  ORDER      ATOM PAIR DIST  ORDER

                       TOTAL       BONDED        FREE
      ATOM            VALENCE     VALENCE     VALENCE
    1 BE                0.000       0.000       0.000

          ---------------------
          ELECTROSTATIC MOMENTS
          ---------------------

 POINT   1           X           Y           Z (BOHR)    CHARGE
                 0.000000    0.000000    0.000000       -0.00 (A.U.)
         DX          DY          DZ         /D/  (DEBYE)
     0.000000    0.000000    0.000000    0.000000
 ...... END OF PROPERTY EVALUATION ......
 STEP CPU TIME =     0.01 TOTAL CPU TIME =          0.0 (      0.0 MIN)
 TOTAL WALL CLOCK TIME=          0.0 SECONDS, CPU UTILIZATION IS    75.00%
               580000  WORDS OF DYNAMIC MEMORY USED
 EXECUTION OF GAMESS TERMINATED NORMALLY Wed Jun 12 15:17:34 2019
 DDI: 263640 bytes (0.3 MB / 0 MWords) used by master data server.

 ----------------------------------------
 CPU timing information for all processes
 ========================================
 0: 0.20 + 0.12 = 0.32
 ----------------------------------------
 ddikick.x: exited gracefully.
----- accounting info -----
Files used on the master node amlan-PT-3420 were:
-rw-rw-r-- 1 akroy akroy    7135 Jun 12 15:17 /tmp/be_atom_6_31g_all.dat
-rw-rw-r-- 1 akroy akroy     241 Jun 12 15:17 /tmp/be_atom_6_31g_all.F05
-rw-rw-r-- 1 akroy akroy  180016 Jun 12 15:17 /tmp/be_atom_6_31g_all.F08
-rw-rw-r-- 1 akroy akroy 1537840 Jun 12 15:17 /tmp/be_atom_6_31g_all.F10
Wed Jun 12 15:17:37 IST 2019
0.0u 0.0s 0:03.15 1.2% 0+0k 0+16io 0pf+0w
