----- GAMESS execution script 'rungms' -----
This job is running on host amlan-PT-3420
under operating system Linux at Tue Oct 1 12:49:38 IST 2019
Available scratch disk space (Kbyte units) at beginning of the job is
Filesystem      1K-blocks     Used  Available Use% Mounted on
/dev/sda3      1916812448 61450416 1757970520   4% /
GAMESS temporary binary files will be written to /tmp
GAMESS supplementary output files will be written to /tmp
Copying input file hcl_all.inp to your run's scratch directory...

 Distributed Data Interface kickoff program.
 Initiating 1 compute processes on 1 nodes to run the following command:
 /home/akroy/gamess/gamess.01.x hcl_all 

          ******************************************************
          *         GAMESS VERSION = 30 SEP 2018 (R3)         *
          *             FROM IOWA STATE UNIVERSITY             *
          * M.W.SCHMIDT, K.K.BALDRIDGE, J.A.BOATZ, S.T.ELBERT, *
          *   M.S.GORDON, J.H.JENSEN, S.KOSEKI, N.MATSUNAGA,   *
          *          K.A.NGUYEN, S.J.SU, T.L.WINDUS,           *
          *       TOGETHER WITH M.DUPUIS, J.A.MONTGOMERY       *
          *         J.COMPUT.CHEM.  14, 1347-1363(1993)        *
          **************** 64 BIT LINUX VERSION ****************

  SINCE 1993, STUDENTS AND POSTDOCS WORKING AT IOWA STATE UNIVERSITY
  AND ALSO IN THEIR VARIOUS JOBS AFTER LEAVING ISU HAVE MADE IMPORTANT
  CONTRIBUTIONS TO THE CODE:
     IVANA ADAMOVIC, CHRISTINE AIKENS, YURI ALEXEEV, POOJA ARORA,
     ANDREY ASADCHEV, ROB BELL, PRADIPTA BANDYOPADHYAY, JONATHAN BENTZ,
     BRETT BODE, KURT BRORSEN, CALEB CARLIN, GALINA CHABAN, WEI CHEN,
     CHEOL HO CHOI, PAUL DAY, ALBERT DEFUSCO, NUWAN DESILVA, TIM DUDLEY,
     DMITRI FEDOROV, ALEX FINDLATER, GRAHAM FLETCHER, MARK FREITAG,
     KURT GLAESEMANN, ANASTASIA GUNINA,
     DAN KEMP, GRANT MERRILL, NORIYUKI MINEZAWA, JONATHAN MULLIN,
     TAKESHI NAGATA, SEAN NEDD, HEATHER NETZLOFF, BOSILJKA NJEGIC, RYAN OLSON,
     MIKE PAK, BUU PHAM,
     SPENCER PRUITT, LUKE ROSKOP, JIM SHOEMAKER, LYUDMILA SLIPCHENKO,
     TONY SMITH, SAROM SOK LEANG, JIE SONG, TETSUYA TAKETSUGU, SIMON WEBB,
     PENG XU, SOOHAENG YOO, FEDERICO ZAHARIEV

  ADDITIONAL CODE HAS BEEN PROVIDED BY COLLABORATORS IN OTHER GROUPS:
     IOWA STATE UNIVERSITY:
          JOE IVANIC, AARON WEST, LAIMUTIS BYTAUTAS, KLAUS RUEDENBERG
     UNIVERSITY OF TOKYO: KIMIHIKO HIRAO, TAKAHITO NAKAJIMA,
          TAKAO TSUNEDA, MUNEAKI KAMIYA, SUSUMU YANAGISAWA,
          KIYOSHI YAGI, MAHITO CHIBA, SEIKEN TOKURA, NAOAKI KAWAKAMI
     UNIVERSITY OF AARHUS: FRANK JENSEN
     UNIVERSITY OF IOWA: VISVALDAS KAIRYS, HUI LI
     NATIONAL INST. OF STANDARDS AND TECHNOLOGY: WALT STEVENS, DAVID GARMER
     UNIVERSITY OF PISA: BENEDETTA MENNUCCI, JACOPO TOMASI
     UNIVERSITY OF MEMPHIS: HENRY KURTZ, PRAKASHAN KORAMBATH
     UNIVERSITY OF ALBERTA: TOBY ZENG, MARIUSZ KLOBUKOWSKI
     UNIVERSITY OF NEW ENGLAND: MARK SPACKMAN
     MIE UNIVERSITY: HIROAKI UMEDA
     NAT. INST. OF ADVANCED INDUSTRIAL SCIENCE AND TECHNOLOGY: KAZUO KITAURA
     MICHIGAN STATE UNIVERSITY:
          KAROL KOWALSKI, MARTA WLOCH, JEFFREY GOUR, JESSE LUTZ,
          WEI LI, JUN SHEN, J. EMILIANO DEUSTUA, PIOTR PIECUCH
     UNIVERSITY OF MINNESOTA:
          YINAN SHU
     UNIVERSITY OF SILESIA: MONIKA MUSIAL, STANISLAW KUCHARSKI
     FACULTES UNIVERSITAIRES NOTRE-DAME DE LA PAIX:
          OLIVIER QUINET, BENOIT CHAMPAGNE
     UNIVERSITY OF CALIFORNIA - SANTA BARBARA: BERNARD KIRTMAN
     INSTITUTE FOR MOLECULAR SCIENCE:
          KAZUYA ISHIMURA, MICHIO KATOUDA, AND SHIGERU NAGASE
     UNIVERSITY OF NOTRE DAME: ANNA POMOGAEVA, DAN CHIPMAN
     KYUSHU UNIVERSITY:
          HARUYUKI NAKANO,
          FENG LONG GU, JACEK KORCHOWIEC, MARCIN MAKOWSKI, AND YURIKO AOKI,
          HIROTOSHI MORI AND EISAKU MIYOSHI
     PENNSYLVANIA STATE UNIVERSITY:
          TZVETELIN IORDANOV, CHET SWALINA, JONATHAN SKONE,
          SHARON HAMMES-SCHIFFER
     WASEDA UNIVERSITY:
          MASATO KOBAYASHI, TOMOKO AKAMA, TSUGUKI TOUMA,
          TAKESHI YOSHIKAWA, YASUHIRO IKABATA, JUNJI SEINO,
          YUYA NAKAJIMA, HIROMI NAKAI
     NANJING UNIVERSITY: SHUHUA LI
     UNIVERSITY OF NEBRASKA:
          PEIFENG SU, DEJUN SI, NANDUN THELLAMUREGE, YALI WANG, HUI LI
     UNIVERSITY OF ZURICH: ROBERTO PEVERATI, KIM BALDRIDGE
     N. COPERNICUS UNIVERSITY AND JACKSON STATE UNIVERSITY:
          MARIA BARYSZ
     UNIVERSITY OF COPENHAGEN: Jimmy Kromann, CASPER STEINMANN
     TOKYO INSTITUTE OF TECHNOLOGY: HIROYA NAKATA
     NAGOYA UNIVERSITY: YOSHIO NISHIMOTO, STEPHAN IRLE
     MOSCOW STATE UNIVERSITY: VLADIMIR MIRONOV

 EXECUTION OF GAMESS BEGUN Tue Oct  1 12:49:38 2019

            ECHO OF THE FIRST FEW INPUT CARDS -
 INPUT CARD> $CONTRL SCFTYP=UHF RUNTYP=ENERGY COORD=CART  $END                              
 INPUT CARD> $SYSTEM MWORDS=200 $END                                                        
 INPUT CARD> $DFT METHOD=GRID DFTTYP=B3LYP $END                                             
 INPUT CARD> $BASIS EXTFIL=.TRUE. GBASIS=6311GDS $END                                       
 INPUT CARD> $GUESS GUESS=HUCKEL $END                                                       
 INPUT CARD> $DATA                                                                          
 INPUT CARD>HCL                                                                             
 INPUT CARD>Cnv  2                                                                          
 INPUT CARD>                                                                                
 INPUT CARD>H   1.0   0.0000   0.0000   0.0000                                              
 INPUT CARD>CL 17.0   0.0000   0.0000   1.2746                                              
 INPUT CARD> $END                                                                           
 INPUT CARD>~                                                                               
  200000000 WORDS OF MEMORY AVAILABLE


                    * * * WARNING * * *
 OLD KEYWORD COORD=CART SELECTED, AUTOMATICALLY CHANGED TO COORD=PRINAXIS.
 YOUR MOLECULE'S COORDINATES WILL BE CHANGED TO PRINCIPAL AXES BY
   A) TRANSLATION TO THE CENTER OF MASS, THEN
   B) ROTATION TO HAVE A DIAGONAL MOMENT OF INERTIA TENSOR.

 HOWEVER, NOTHING ELSE IN YOUR INPUT WILL BE ROTATED IN THE SAME WAY,
 SO IF YOU HAVE A $VEC, $VIB, $GRAD, $HESS, EFP PARTICLE COORDINATES,
 OR ANYTHING ELSE THAT DEPENDS ON THE INITIAL ORIENTATION, THAT DATA
 WILL NOT BE USED CORRECTLY IN THIS RUN.

 THE PURPOSE OF COORD=PRINAXIS IS TO BE USED ONCE, ONLY AT THE VERY
 BEGINNING OF A SERIES OF COMPUTATIONS, PERHAPS TO FIND THE SYMMETRY
 UNIQUE ATOMS FROM AN ARBITRARY INITIAL ORIENTATION.

 AFTER THE FIRST RUN, YOU SHOULD USE ONLY COORD=UNIQUE, TO ENSURE THAT
 THE COORDINATES WHICH YOU READ IN ARE THE COORDINATES THAT ARE USED.


     $BASIS REQUESTS READING THE "6311GDS " BASIS SET FROM AN EXTERNAL FILE


     RUN TITLE
     ---------
 HCL                                                                             

 THE POINT GROUP OF THE MOLECULE IS CNV     
 THE ORDER OF THE PRINCIPAL AXIS IS     2

 THE MOMENTS OF INERTIA ARE (AMU-ANGSTROM**2)
 IXX=     1.591   IYY=     1.591   IZZ=     0.000

 THE EXTERNAL BASIS SET FILE BEING READ IS
     "/home/akroy/gamess/EXTFILE.txt"

 ATOM      ATOMIC                      COORDINATES (BOHR)
           CHARGE         X                   Y                   Z
 H           1.0     0.0000000000        0.0000000000       -2.3411706822
 CL         17.0     0.0000000000        0.0000000000        0.0674740617

          INTERNUCLEAR DISTANCES (ANGS.)
          ------------------------------

                1 H          2 CL    

   1 H       0.0000000    1.2746000 *
   2 CL      1.2746000 *  0.0000000  

  * ... LESS THAN  3.000


     ATOMIC BASIS SET
     ----------------
 THE CONTRACTED PRIMITIVE FUNCTIONS HAVE BEEN UNNORMALIZED
 THE CONTRACTED BASIS FUNCTIONS ARE NOW NORMALIZED TO UNITY

  SHELL TYPE  PRIMITIVE        EXPONENT          CONTRACTION COEFFICIENT(S)

 H         

      1   S       1            33.8650000    0.025493814541
      1   S       2             5.0947900    0.190373108582
      1   S       3             1.1587900    0.852161486043

      2   S       4             0.3258400    1.000000000000

      3   S       5             0.1027410    1.000000000000

      4   S       6             0.0360000    1.000000000000

      5   P       7             0.7500000    1.000000000000

 CL        

      6   S       8        105819.0000000    0.000738000247
      6   S       9         15872.0000000    0.005718001910
      6   S      10          3619.6500000    0.029495009853
      6   S      11          1030.8000000    0.117286039181
      6   S      12           339.9080000    0.362949121247
      6   S      13           124.5380000    0.584149195141

      7   S      14           124.5380000    0.134176973388
      7   S      15            49.5135000    0.624249876187
      7   S      16            20.8056000    0.291755942134

      8   S      17             6.5834600    1.000000000000

      9   S      18             2.5646800    1.000000000000

     10   S      19             0.5597630    1.000000000000

     11   S      20             0.1832730    1.000000000000

     12   P      21           589.7760000    0.002390999685
     12   P      22           139.8490000    0.018503997563
     12   P      23            45.1413000    0.081376989284
     12   P      24            16.8733000    0.221551970825
     12   P      25             6.7411000    0.772568898264

     13   P      26             6.7411000   -1.572243812589
     13   P      27             2.7715200    0.992388881708

     14   L      28             0.0483000    1.000000000000    1.000000000000

     15   P      29             1.0238700    1.000000000000

     16   P      30             0.3813680    1.000000000000

     17   P      31             0.1094370    1.000000000000

     18   D      32             0.7500000    1.000000000000

 TOTAL NUMBER OF BASIS SET SHELLS             =   18
 NUMBER OF CARTESIAN GAUSSIAN BASIS FUNCTIONS =   38
 NUMBER OF ELECTRONS                          =   18
 CHARGE OF MOLECULE                           =    0
 SPIN MULTIPLICITY                            =    1
 NUMBER OF OCCUPIED ORBITALS (ALPHA)          =    9
 NUMBER OF OCCUPIED ORBITALS (BETA )          =    9
 TOTAL NUMBER OF ATOMS                        =    2
 THE NUCLEAR REPULSION ENERGY IS        7.0579109031

 THIS MOLECULE IS RECOGNIZED AS BEING LINEAR,
 ORBITAL LZ DEGENERACY TOLERANCE ETOLLZ= 1.00E-06

 *** WARNING ***
 KEYWORD DFTTYP IN $DFT IS NOW OBSOLETE.
 PLEASE ENTER DFTTYP IN THE $CONTRL GROUP IN FUTURE INPUT FILES.


     LEBEDEV GRID-BASED DFT OPTIONS
     ------------------------------
     DFTTYP=B3LYP   
     NRAD  =      96     NLEB  =     302
     NRAD0 =      24     NLEB0 =     110
     SWOFF =    5.00E-03 (PURE SCF -> DFT)
     SWITCH=    3.00E-04 (COARSE -> TIGHT GRID)
     THRESH=    0.00E+00 GTHRE=    1.00E+00

 GRIMME'S EMPIRICAL DISPERSION CORRECTION= F

     $CONTRL OPTIONS
     ---------------
 SCFTYP=UHF          RUNTYP=ENERGY       EXETYP=RUN     
 MPLEVL=       0     CITYP =NONE         CCTYP =NONE         VBTYP =NONE    
 DFTTYP=B3LYP        TDDFT =NONE    
 MULT  =       1     ICHARG=       0     NZVAR =       0     COORD =PRINAXIS
 PP    =NONE         RELWFN=NONE         LOCAL =NONE         NUMGRD=       F
 ISPHER=      -1     NOSYM =       0     MAXIT =      30     UNITS =ANGS    
 PLTORB=       F     MOLPLT=       F     AIMPAC=       F     FRIEND=        
 NPRINT=       7     IREST =       0     GEOM  =INPUT   
 NORMF =       0     NORMP =       0     ITOL  =      20     ICUT  =       9
 INTTYP=BEST         GRDTYP=BEST         QMTTOL= 1.0E-06

     $SYSTEM OPTIONS
     ---------------
  REPLICATED MEMORY=   200000000 WORDS (ON EVERY NODE).
 DISTRIBUTED MEMDDI=           0 MILLION WORDS IN AGGREGATE,
 MEMDDI DISTRIBUTED OVER   1 PROCESSORS IS           0 WORDS/PROCESSOR.
 TOTAL MEMORY REQUESTED ON EACH PROCESSOR=   200000000 WORDS.
 TIMLIM=      525600.00 MINUTES, OR     365.0 DAYS.
 PARALL= F  BALTYP=  DLB     KDIAG=    0  COREFL= F
 MXSEQ2=     300 MXSEQ3=     150  mem10=         0

          ----------------
          PROPERTIES INPUT
          ----------------

     MOMENTS            FIELD           POTENTIAL          DENSITY
 IEMOM =       1   IEFLD =       0   IEPOT =       0   IEDEN =       0
 WHERE =COMASS     WHERE =NUCLEI     WHERE =NUCLEI     WHERE =NUCLEI  
 OUTPUT=BOTH       OUTPUT=BOTH       OUTPUT=BOTH       OUTPUT=BOTH    
 IEMINT=       0   IEFINT=       0                     IEDINT=       0
                                                       MORB  =       0
          EXTRAPOLATION IN EFFECT
          DIIS IN EFFECT
          DIIS or SOSCF will be reset if energy rises
 ORBITAL PRINTING OPTION: NPREO=     1    38     2     1

     -------------------------------
     INTEGRAL TRANSFORMATION OPTIONS
     -------------------------------
     NWORD  =            0
     CUTOFF = 1.0E-09     MPTRAN =       0
     DIRTRF =       F     AOINTS =DUP     

          ----------------------
          INTEGRAL INPUT OPTIONS
          ----------------------
 NOPK  =       1 NORDER=       0 SCHWRZ=       F

     ------------------------------------------
     THE POINT GROUP IS CNV, NAXIS= 2, ORDER= 4
     ------------------------------------------

     DIMENSIONS OF THE SYMMETRY SUBSPACES ARE
 A1  =   21     A2  =    1     B1  =    8     B2  =    8

 ..... DONE SETTING UP THE RUN .....
 STEP CPU TIME =     0.00 TOTAL CPU TIME =          0.0 (      0.0 MIN)
 TOTAL WALL CLOCK TIME=          0.0 SECONDS, CPU UTILIZATION IS     0.00%

          ********************
          1 ELECTRON INTEGRALS
          ********************
 ...... END OF ONE-ELECTRON INTEGRALS ......
 STEP CPU TIME =     0.00 TOTAL CPU TIME =          0.0 (      0.0 MIN)
 TOTAL WALL CLOCK TIME=          0.0 SECONDS, CPU UTILIZATION IS     0.00%

          -------------
          GUESS OPTIONS
          -------------
          GUESS =HUCKEL            NORB  =       0          NORDER=       0
          MIX   =       F          PRTMO =       F          PUNMO =       F
          TOLZ  = 1.0E-08          TOLE  = 1.0E-05
          SYMDEN=       F          PURIFY=       F

 INITIAL GUESS ORBITALS GENERATED BY HUCKEL   ROUTINE.
 HUCKEL GUESS REQUIRES     12706 WORDS.

 SYMMETRIES FOR INITIAL GUESS ORBITALS FOLLOW.  ALPHA SET(S).
     9 ORBITALS ARE OCCUPIED (    5 CORE ORBITALS).
     6=A1       7=A1       8=B1       9=B2      10=A1      11=A1      12=A1  
    13=A1      14=A1      15=A1      16=A1      17=A1      18=A1      19=A1  

 SYMMETRIES FOR INITIAL GUESS ORBITALS FOLLOW.   BETA SET(S).
     9 ORBITALS ARE OCCUPIED (    5 CORE ORBITALS).
     6=A1       7=A1       8=B1       9=B2      10=A1      11=A1      12=A1  
    13=A1      14=A1      15=A1      16=A1      17=A1      18=A1      19=A1  
 ...... END OF INITIAL ORBITAL SELECTION ......
 STEP CPU TIME =     0.00 TOTAL CPU TIME =          0.0 (      0.0 MIN)
 TOTAL WALL CLOCK TIME=          0.0 SECONDS, CPU UTILIZATION IS     0.00%

                    ----------------------
                    AO INTEGRAL TECHNOLOGY
                    ----------------------
     S,P,L SHELL ROTATED AXIS INTEGRALS, REPROGRAMMED BY
        KAZUYA ISHIMURA (IMS) AND JOSE SIERRA (SYNSTAR).
     S,P,D,L SHELL ROTATED AXIS INTEGRALS PROGRAMMED BY
        KAZUYA ISHIMURA (INSTITUTE FOR MOLECULAR SCIENCE).
     S,P,D,F,G SHELL TO TOTAL QUARTET ANGULAR MOMENTUM SUM 5,
        ERIC PROGRAM BY GRAHAM FLETCHER (ELORET AND NASA ADVANCED
        SUPERCOMPUTING DIVISION, AMES RESEARCH CENTER).
     S,P,D,F,G,L SHELL GENERAL RYS QUADRATURE PROGRAMMED BY
        MICHEL DUPUIS (PACIFIC NORTHWEST NATIONAL LABORATORY).

          --------------------
          2 ELECTRON INTEGRALS
          --------------------

 THE -PK- OPTION IS OFF, THE INTEGRALS ARE NOT IN SUPERMATRIX FORM.
 STORING   15000 INTEGRALS/RECORD ON DISK, USING 12 BYTES/INTEGRAL.
 TWO ELECTRON INTEGRAL EVALUATION REQUIRES   90567 WORDS OF MEMORY.
 II,JST,KST,LST =  1  1  1  1 NREC =         1 INTLOC =    1
 II,JST,KST,LST =  2  1  1  1 NREC =         1 INTLOC =    2
 II,JST,KST,LST =  3  1  1  1 NREC =         1 INTLOC =    7
 II,JST,KST,LST =  4  1  1  1 NREC =         1 INTLOC =   22
 II,JST,KST,LST =  5  1  1  1 NREC =         1 INTLOC =   56
 II,JST,KST,LST =  6  1  1  1 NREC =         1 INTLOC =  125
 II,JST,KST,LST =  7  1  1  1 NREC =         1 INTLOC =  260
 II,JST,KST,LST =  8  1  1  1 NREC =         1 INTLOC =  463
 II,JST,KST,LST =  9  1  1  1 NREC =         1 INTLOC =  755
 II,JST,KST,LST = 10  1  1  1 NREC =         1 INTLOC = 1160
 II,JST,KST,LST = 11  1  1  1 NREC =         1 INTLOC = 1705
 II,JST,KST,LST = 12  1  1  1 NREC =         1 INTLOC = 2420
 II,JST,KST,LST = 13  1  1  1 NREC =         1 INTLOC = 3965
 II,JST,KST,LST = 14  1  1  1 NREC =         1 INTLOC = 6446
 II,JST,KST,LST = 15  1  1  1 NREC =         1 INTLOC =12261
 II,JST,KST,LST = 16  1  1  1 NREC =         2 INTLOC = 3085
 II,JST,KST,LST = 17  1  1  1 NREC =         2 INTLOC =10916
 II,JST,KST,LST = 18  1  1  1 NREC =         3 INTLOC = 6198
 TOTAL NUMBER OF NONZERO TWO-ELECTRON INTEGRALS =               64777
          5 INTEGRAL RECORDS WERE STORED ON DISK FILE  8.
  ...... END OF TWO-ELECTRON INTEGRALS .....
 STEP CPU TIME =     0.03 TOTAL CPU TIME =          0.0 (      0.0 MIN)
 TOTAL WALL CLOCK TIME=          0.0 SECONDS, CPU UTILIZATION IS    75.00%

          ---------------------------
              U-B3LYP SCF CALCULATION
          ---------------------------

     NUCLEAR ENERGY =         7.0579109031
     MAXIT = 30     NPUNCH=  2     MULT=  1
     EXTRAP=T  DAMP=F  SHIFT=F  RSTRCT=F  DIIS=T  SOSCF=F
         DENSITY MATRIX CONVERGENCE THRESHOLD=  1.00E-05
     COARSE -> FINE DFT GRID SWITCH THRESHOLD=  3.00E-04 (SWITCH IN $DFT)
                   HF -> DFT SWITCH THRESHOLD=  5.00E-03 (SWOFF IN $DFT)
     MEMORY REQUIRED FOR UHF/ROHF ITERS=    150510 WORDS.

 DFT CODE IS SWITCHING FROM THE FINE GRID NRAD= 96,  NLEB=  302
                      TO THE COARSE GRID NRAD0= 24, NLEB0=  110

     EXCHANGE FUNCTIONAL   =B88&HFX   
     CORRELATION FUNCTIONAL=LYP88&VWN5
     DFT THRESHOLD         =.690E-07
     GRID CHANGE THRESHOLD =.300E-03
 FOR AN EULER-MACLAURIN QUADRATURE USING  96 RADIAL POINTS:
 SMALLEST GAUSSIAN PRIMITIVE EXPONENT=        0.0360000000 OF TYPE -S-
 ON ATOM NUMBER   1 HAS RADIAL NORMALIZATION=  1.000000
  LARGEST GAUSSIAN PRIMITIVE EXPONENT=   105819.0000000000 OF TYPE -S-
 ON ATOM NUMBER   2 HAS RADIAL NORMALIZATION=  0.999999
 DFT IS SWITCHED OFF, PERFORMING PURE SCF UNTIL SWOFF THRESHOLD IS REACHED.

 ITER EX      TOTAL ENERGY        E CHANGE  DENSITY CHANGE    DIIS ERROR
   1  0     -459.6663111892  -459.6663111892   0.391033314   4.135818474
          * * *   INITIATING DIIS PROCEDURE   * * *
   2  1     -460.0897515542    -0.4234403651   0.025131226   0.103093353
   3  2     -460.0953017587    -0.0055502045   0.009870634   0.012210766
   4  3     -460.0957106527    -0.0004088940   0.003431209   0.004079193
 CONVERGED TO SWOFF, SO DFT CALCULATION IS NOW SWITCHED ON.
          * * *   INITIATING DIIS PROCEDURE   * * *
   5  4     -460.7535788994    -0.6578682467   0.066604737   0.203513761
   6  5     -460.7614613368    -0.0078824374   0.015680074   0.008869369
   7  6     -460.7615107737    -0.0000494369   0.008456875   0.006647394
   8  7     -460.7616167069    -0.0001059332   0.000626447   0.001139997
   9  8     -460.7616181165    -0.0000014097   0.000130225   0.000203624
 DFT CODE IS SWITCHING BACK TO THE FINE GRID
          * * *   INITIATING DIIS PROCEDURE   * * *
  10  9     -460.7656016545    -0.0039835379   0.003276015   0.005973274
  11 10     -460.7656051662    -0.0000035117   0.000246369   0.000202080
  12 11     -460.7656051946    -0.0000000284   0.000121150   0.000166965
  13 12     -460.7656052398    -0.0000000453   0.000022379   0.000021938
  14 13     -460.7656052408    -0.0000000009   0.000007092   0.000005688
  15 14     -460.7656052408    -0.0000000001   0.000000283   0.000000204

          -----------------
          DENSITY CONVERGED
          -----------------
     TIME TO FORM FOCK OPERATORS=       1.2 SECONDS (       0.1 SEC/ITER)
     TIME TO SOLVE SCF EQUATIONS=       0.0 SECONDS (       0.0 SEC/ITER)

 FINAL U-B3LYP ENERGY IS     -460.7656052408 AFTER  15 ITERATIONS
 DFT EXCHANGE + CORRELATION ENERGY =       -22.9583028552
 TOTAL ELECTRON NUMBER             =        17.9999998045

          --------------------
          SPIN SZ   =    0.000
          S-SQUARED =   -0.000
          --------------------

 LZ VALUE ANALYSIS FOR THE MOS
 ----------------------------------------
 MO     1 (    1) HAS LZ(WEIGHT)= 0.00(100.0%) 
 MO     2 (    2) HAS LZ(WEIGHT)= 0.00(100.0%) 
 MO     3 (    3) HAS LZ(WEIGHT)= 0.00(100.0%) 
 MO     4 (    4) HAS LZ(WEIGHT)=-1.00( 50.0%)  1.00( 50.0%) 
 MO     5 (    4) HAS LZ(WEIGHT)=-1.00( 50.0%)  1.00( 50.0%) 
 MO     6 (    5) HAS LZ(WEIGHT)= 0.00(100.0%) 
 MO     7 (    6) HAS LZ(WEIGHT)= 0.00(100.0%) 
 MO     8 (    7) HAS LZ(WEIGHT)=-1.00( 50.0%)  1.00( 50.0%) 
 MO     9 (    7) HAS LZ(WEIGHT)=-1.00( 50.0%)  1.00( 50.0%) 
 MO    10 (    8) HAS LZ(WEIGHT)= 0.00(100.0%) 
 MO    11 (    9) HAS LZ(WEIGHT)= 0.00(100.0%) 
 MO    12 (   10) HAS LZ(WEIGHT)= 0.00(100.0%) 
 MO    13 (   11) HAS LZ(WEIGHT)=-1.00( 50.0%)  1.00( 50.0%) 
 MO    14 (   11) HAS LZ(WEIGHT)=-1.00( 50.0%)  1.00( 50.0%) 
 MO    15 (   12) HAS LZ(WEIGHT)= 0.00(100.0%) 
 MO    16 (   13) HAS LZ(WEIGHT)= 0.00(100.0%) 
 MO    17 (   14) HAS LZ(WEIGHT)= 0.00(100.0%) 
 MO    18 (   15) HAS LZ(WEIGHT)=-1.00( 50.0%)  1.00( 50.0%) 
 MO    19 (   15) HAS LZ(WEIGHT)=-1.00( 50.0%)  1.00( 50.0%) 
 MO    20 (   16) HAS LZ(WEIGHT)=-1.00( 50.0%)  1.00( 50.0%) 
 MO    21 (   16) HAS LZ(WEIGHT)=-1.00( 50.0%)  1.00( 50.0%) 
 MO    22 (   17) HAS LZ(WEIGHT)= 0.00(100.0%) 
 MO    23 (   18) HAS LZ(WEIGHT)=-2.00( 50.0%)  2.00( 50.0%) 
 MO    24 (   18) HAS LZ(WEIGHT)=-2.00( 50.0%)  2.00( 50.0%) 
 MO    25 (   19) HAS LZ(WEIGHT)= 0.00(100.0%) 
 MO    26 (   20) HAS LZ(WEIGHT)=-1.00( 50.0%)  1.00( 50.0%) 
 MO    27 (   20) HAS LZ(WEIGHT)=-1.00( 50.0%)  1.00( 50.0%) 
 MO    28 (   21) HAS LZ(WEIGHT)= 0.00(100.0%) 
 MO    29 (   22) HAS LZ(WEIGHT)=-1.00( 50.0%)  1.00( 50.0%) 
 MO    30 (   22) HAS LZ(WEIGHT)=-1.00( 50.0%)  1.00( 50.0%) 
 MO    31 (   23) HAS LZ(WEIGHT)= 0.00(100.0%) 
 MO    32 (   24) HAS LZ(WEIGHT)= 0.00(100.0%) 
 MO    33 (   25) HAS LZ(WEIGHT)= 0.00(100.0%) 
 MO    34 (   26) HAS LZ(WEIGHT)= 0.00(100.0%) 
 MO    35 (   27) HAS LZ(WEIGHT)=-1.00( 50.0%)  1.00( 50.0%) 
 MO    36 (   27) HAS LZ(WEIGHT)=-1.00( 50.0%)  1.00( 50.0%) 
 MO    37 (   28) HAS LZ(WEIGHT)= 0.00(100.0%) 
 MO    38 (   29) HAS LZ(WEIGHT)= 0.00(100.0%) 

  ----- ALPHA SET ----- 

          ------------
          EIGENVECTORS
          ------------

                      1          2          3          4          5
                 -101.5613    -9.4768    -7.2411    -7.2314    -7.2314
                     A1         A1         A1         B2         B1  
    1  H  1  S    0.000010   0.000013  -0.000145  -0.000000  -0.000000
    2  H  1  S    0.000031  -0.000669   0.000440  -0.000000  -0.000000
    3  H  1  S   -0.000094   0.001284  -0.000181  -0.000000  -0.000000
    4  H  1  S    0.000244  -0.002804   0.000010  -0.000000  -0.000000
    5  H  1  X    0.000000  -0.000000  -0.000000  -0.000000  -0.000048
    6  H  1  Y    0.000000  -0.000000  -0.000000  -0.000048  -0.000000
    7  H  1  Z    0.000065  -0.000748   0.000283  -0.000000  -0.000000
    8  CL 2  S    0.411639  -0.121765  -0.000809  -0.000000  -0.000000
    9  CL 2  S    0.653898  -0.327380  -0.002208  -0.000000  -0.000000
   10  CL 2  S    0.016178   0.502320   0.003583  -0.000000  -0.000000
   11  CL 2  S   -0.007174   0.594256   0.003827  -0.000000  -0.000000
   12  CL 2  S    0.005823   0.081498   0.000466  -0.000000  -0.000000
   13  CL 2  S    0.000676  -0.008843  -0.000205  -0.000000  -0.000000
   14  CL 2  X    0.000000  -0.000000  -0.000000  -0.000000   1.233941
   15  CL 2  Y    0.000000  -0.000000  -0.000000   1.233941  -0.000000
   16  CL 2  Z   -0.000124  -0.007862   1.233315  -0.000000  -0.000000
   17  CL 2  X    0.000000  -0.000000  -0.000000  -0.000000   0.333556
   18  CL 2  Y    0.000000  -0.000000  -0.000000   0.333556  -0.000000
   19  CL 2  Z   -0.000072  -0.002066   0.333465  -0.000000  -0.000000
   20  CL 2  S   -0.000357   0.004062   0.000090  -0.000000  -0.000000
   21  CL 2  X    0.000000  -0.000000  -0.000000  -0.000000   0.000086
   22  CL 2  Y    0.000000  -0.000000  -0.000000   0.000086  -0.000000
   23  CL 2  Z    0.000118  -0.001323  -0.000010  -0.000000  -0.000000
   24  CL 2  X    0.000000  -0.000000  -0.000000  -0.000000   0.052180
   25  CL 2  Y    0.000000  -0.000000  -0.000000   0.052180  -0.000000
   26  CL 2  Z    0.000046  -0.000521   0.053225  -0.000000  -0.000000
   27  CL 2  X    0.000000  -0.000000  -0.000000  -0.000000  -0.000740
   28  CL 2  Y    0.000000  -0.000000  -0.000000  -0.000740  -0.000000
   29  CL 2  Z    0.000050  -0.000946  -0.000607  -0.000000  -0.000000
   30  CL 2  X    0.000000  -0.000000  -0.000000  -0.000000  -0.000067
   31  CL 2  Y    0.000000  -0.000000  -0.000000  -0.000067  -0.000000
   32  CL 2  Z   -0.000098   0.001168   0.000054  -0.000000  -0.000000
   33  CL 2 XX   -0.001882  -0.011710   0.000183  -0.000000  -0.000000
   34  CL 2 YY   -0.001882  -0.011710   0.000183  -0.000000  -0.000000
   35  CL 2 ZZ   -0.001921  -0.010561  -0.001015  -0.000000  -0.000000
   36  CL 2 XY    0.000000  -0.000000  -0.000000  -0.000000  -0.000000
   37  CL 2 XZ    0.000000  -0.000000  -0.000000  -0.000000  -0.000418
   38  CL 2 YZ    0.000000  -0.000000  -0.000000  -0.000418  -0.000000

                      6          7          8          9         10
                   -0.8518    -0.4778    -0.3356    -0.3356    -0.0239
                     A1         A1         B2         B1         A1  
    1  H  1  S    0.096521  -0.163588  -0.000000  -0.000000   0.071955
    2  H  1  S    0.117420  -0.287225  -0.000000  -0.000000   0.204950
    3  H  1  S   -0.004990  -0.084296  -0.000000  -0.000000   0.708242
    4  H  1  S    0.022140  -0.028399  -0.000000  -0.000000   1.524455
    5  H  1  X   -0.000000  -0.000000  -0.000000   0.026814   0.000000
    6  H  1  Y   -0.000000  -0.000000   0.026814  -0.000000   0.000000
    7  H  1  Z    0.026585  -0.027193  -0.000000  -0.000000  -0.021362
    8  CL 2  S    0.036346   0.012265  -0.000000  -0.000000  -0.009914
    9  CL 2  S    0.104409   0.035302  -0.000000  -0.000000  -0.028560
   10  CL 2  S   -0.215067  -0.073255  -0.000000  -0.000000   0.059478
   11  CL 2  S   -0.374319  -0.133375  -0.000000  -0.000000   0.115655
   12  CL 2  S    0.582368   0.205847  -0.000000  -0.000000  -0.189794
   13  CL 2  S    0.473663   0.290835  -0.000000  -0.000000  -0.463339
   14  CL 2  X   -0.000000  -0.000000  -0.000000  -0.350459   0.000000
   15  CL 2  Y   -0.000000  -0.000000  -0.350459  -0.000000   0.000000
   16  CL 2  Z    0.057054  -0.289242  -0.000000  -0.000000  -0.131008
   17  CL 2  X   -0.000000  -0.000000  -0.000000  -0.086052   0.000000
   18  CL 2  Y   -0.000000  -0.000000  -0.086052  -0.000000   0.000000
   19  CL 2  Z    0.014747  -0.072260  -0.000000  -0.000000  -0.031016
   20  CL 2  S   -0.018295   0.056227  -0.000000  -0.000000  -0.995687
   21  CL 2  X   -0.000000  -0.000000  -0.000000  -0.021674   0.000000
   22  CL 2  Y   -0.000000  -0.000000  -0.021674  -0.000000   0.000000
   23  CL 2  Z    0.009095  -0.029940  -0.000000  -0.000000   0.453361
   24  CL 2  X   -0.000000  -0.000000  -0.000000   0.264392   0.000000
   25  CL 2  Y   -0.000000  -0.000000   0.264392  -0.000000   0.000000
   26  CL 2  Z   -0.042654   0.217933  -0.000000  -0.000000   0.097135
   27  CL 2  X   -0.000000  -0.000000  -0.000000   0.567397   0.000000
   28  CL 2  Y   -0.000000  -0.000000   0.567397  -0.000000   0.000000
   29  CL 2  Z   -0.061235   0.409850  -0.000000  -0.000000   0.275175
   30  CL 2  X   -0.000000  -0.000000  -0.000000   0.366217   0.000000
   31  CL 2  Y   -0.000000  -0.000000   0.366217  -0.000000   0.000000
   32  CL 2  Z   -0.017205   0.169518  -0.000000  -0.000000   0.346957
   33  CL 2 XX    0.003026   0.022900  -0.000000  -0.000000  -0.015950
   34  CL 2 YY    0.003026   0.022900  -0.000000  -0.000000  -0.015950
   35  CL 2 ZZ    0.038880  -0.045108  -0.000000  -0.000000   0.046282
   36  CL 2 XY   -0.000000  -0.000000  -0.000000  -0.000000   0.000000
   37  CL 2 XZ   -0.000000  -0.000000  -0.000000  -0.016951   0.000000
   38  CL 2 YZ   -0.000000  -0.000000  -0.016951  -0.000000   0.000000

                     11         12         13         14         15
                    0.0549     0.0656     0.0734     0.0734     0.1259
                     A1         A1         B2         B1         A1  
    1  H  1  S    0.124730   0.088822   0.000000   0.000000   0.011487
    2  H  1  S    0.311806   0.197429   0.000000   0.000000   0.137371
    3  H  1  S    1.844437   0.768520   0.000000   0.000000  -0.428934
    4  H  1  S   -0.561866  -0.688123   0.000000   0.000000  -3.995693
    5  H  1  X   -0.000000   0.000000   0.000000   0.003977  -0.000000
    6  H  1  Y   -0.000000   0.000000   0.003977   0.000000  -0.000000
    7  H  1  Z   -0.003901   0.021175   0.000000   0.000000  -0.016513
    8  CL 2  S    0.000442  -0.007320   0.000000   0.000000  -0.009385
    9  CL 2  S    0.001432  -0.020823   0.000000   0.000000  -0.026519
   10  CL 2  S   -0.004613   0.040640   0.000000   0.000000   0.049907
   11  CL 2  S    0.004382   0.102164   0.000000   0.000000   0.142531
   12  CL 2  S    0.044141  -0.120900   0.000000   0.000000  -0.161023
   13  CL 2  S   -0.237573  -0.628870   0.000000   0.000000  -1.033173
   14  CL 2  X   -0.000000   0.000000   0.000000   0.115744  -0.000000
   15  CL 2  Y   -0.000000   0.000000   0.115744   0.000000  -0.000000
   16  CL 2  Z   -0.150738   0.017375   0.000000   0.000000  -0.081956
   17  CL 2  X   -0.000000   0.000000   0.000000   0.030512  -0.000000
   18  CL 2  Y   -0.000000   0.000000   0.030512   0.000000  -0.000000
   19  CL 2  Z   -0.037248   0.006386   0.000000   0.000000  -0.020507
   20  CL 2  S   -1.305512   0.595172   0.000000   0.000000   4.752281
   21  CL 2  X   -0.000000   0.000000   0.000000   1.435751  -0.000000
   22  CL 2  Y   -0.000000   0.000000   1.435751   0.000000  -0.000000
   23  CL 2  Z   -0.177596   1.081007   0.000000   0.000000  -2.333471
   24  CL 2  X   -0.000000   0.000000   0.000000  -0.114501  -0.000000
   25  CL 2  Y   -0.000000   0.000000  -0.114501   0.000000  -0.000000
   26  CL 2  Z    0.126854  -0.033975   0.000000   0.000000   0.072324
   27  CL 2  X   -0.000000   0.000000   0.000000  -0.126556  -0.000000
   28  CL 2  Y   -0.000000   0.000000  -0.126556   0.000000  -0.000000
   29  CL 2  Z    0.250979   0.054388   0.000000   0.000000   0.145808
   30  CL 2  X   -0.000000   0.000000   0.000000  -0.646997  -0.000000
   31  CL 2  Y   -0.000000   0.000000  -0.646997   0.000000  -0.000000
   32  CL 2  Z    1.052805  -0.091350   0.000000   0.000000   0.356044
   33  CL 2 XX   -0.037139  -0.005056   0.000000   0.000000   0.063053
   34  CL 2 YY   -0.037139  -0.005056   0.000000   0.000000   0.063053
   35  CL 2 ZZ    0.123760   0.089905   0.000000   0.000000   0.018468
   36  CL 2 XY   -0.000000   0.000000   0.000000   0.000000  -0.000000
   37  CL 2 XZ   -0.000000   0.000000   0.000000   0.005075  -0.000000
   38  CL 2 YZ   -0.000000   0.000000   0.005075   0.000000  -0.000000

                     16         17         18         19         20
                    0.3486     0.4494     0.4518     0.4518     0.7367
                     A1         A1         B2         B1         B2  
    1  H  1  S   -0.118831  -0.074850   0.000000   0.000000   0.000000
    2  H  1  S   -1.545539  -0.375917   0.000000   0.000000   0.000000
    3  H  1  S    3.391264   1.696033   0.000000   0.000000   0.000000
    4  H  1  S    0.271864  -1.058513   0.000000   0.000000   0.000000
    5  H  1  X    0.000000  -0.000000   0.000000   0.006222   0.000000
    6  H  1  Y    0.000000  -0.000000   0.006222   0.000000  -0.380164
    7  H  1  Z   -0.074328   0.005730   0.000000   0.000000   0.000000
    8  CL 2  S    0.002414  -0.004063   0.000000   0.000000   0.000000
    9  CL 2  S    0.007117  -0.011722   0.000000   0.000000   0.000000
   10  CL 2  S   -0.016475   0.024488   0.000000   0.000000   0.000000
   11  CL 2  S   -0.021046   0.051500   0.000000   0.000000   0.000000
   12  CL 2  S   -0.011120  -0.108985   0.000000   0.000000   0.000000
   13  CL 2  S   -0.031913  -0.379776   0.000000   0.000000   0.000000
   14  CL 2  X    0.000000  -0.000000   0.000000   0.222961   0.000000
   15  CL 2  Y    0.000000  -0.000000   0.222961   0.000000  -0.019383
   16  CL 2  Z    0.020068   0.231961   0.000000   0.000000   0.000000
   17  CL 2  X    0.000000  -0.000000   0.000000   0.041996   0.000000
   18  CL 2  Y    0.000000  -0.000000   0.041996   0.000000  -0.003589
   19  CL 2  Z    0.003654   0.044472   0.000000   0.000000   0.000000
   20  CL 2  S   -1.980461   0.242160   0.000000   0.000000   0.000000
   21  CL 2  X    0.000000  -0.000000   0.000000  -1.296481   0.000000
   22  CL 2  Y    0.000000  -0.000000  -1.296480   0.000000  -0.033202
   23  CL 2  Z    1.605243  -1.342773   0.000000   0.000000   0.000000
   24  CL 2  X    0.000000  -0.000000   0.000000  -0.104477   0.000000
   25  CL 2  Y    0.000000  -0.000000  -0.104477   0.000000   0.011768
   26  CL 2  Z    0.003583  -0.108258   0.000000   0.000000   0.000000
   27  CL 2  X    0.000000  -0.000000   0.000000  -1.067155   0.000000
   28  CL 2  Y    0.000000  -0.000000  -1.067155   0.000000   0.050310
   29  CL 2  Z   -0.117481  -1.116670   0.000000   0.000000   0.000000
   30  CL 2  X    0.000000  -0.000000   0.000000   2.223783   0.000000
   31  CL 2  Y    0.000000  -0.000000   2.223783   0.000000   0.090047
   32  CL 2  Z   -0.480158   2.612264   0.000000   0.000000   0.000000
   33  CL 2 XX    0.098375   0.005164   0.000000   0.000000   0.000000
   34  CL 2 YY    0.098375   0.005164   0.000000   0.000000   0.000000
   35  CL 2 ZZ   -0.178664  -0.000582   0.000000   0.000000   0.000000
   36  CL 2 XY    0.000000  -0.000000   0.000000   0.000000   0.000000
   37  CL 2 XZ    0.000000  -0.000000   0.000000   0.011404   0.000000
   38  CL 2 YZ    0.000000  -0.000000   0.011404   0.000000   0.842870

                     21         22         23         24         25
                    0.7367     0.7877     0.8603     0.8603     1.0476
                     B1         A1         A1         A2         A1  
    1  H  1  S    0.000000   0.052137   0.000000   0.000000  -0.001483
    2  H  1  S    0.000000   0.003194   0.000000   0.000000  -1.071629
    3  H  1  S    0.000000  -0.859627   0.000000   0.000000   0.765647
    4  H  1  S    0.000000   1.799674  -0.000000   0.000000   0.640492
    5  H  1  X   -0.380164   0.000000   0.000000   0.000000  -0.000000
    6  H  1  Y    0.000000   0.000000   0.000000   0.000000  -0.000000
    7  H  1  Z    0.000000  -0.162991   0.000000   0.000000   0.296822
    8  CL 2  S    0.000000  -0.027728   0.000000   0.000000  -0.010512
    9  CL 2  S    0.000000  -0.085557   0.000000   0.000000  -0.032853
   10  CL 2  S    0.000000   0.237023   0.000000   0.000000   0.095218
   11  CL 2  S    0.000000   0.038937   0.000000   0.000000  -0.005049
   12  CL 2  S    0.000000  -1.418808   0.000000   0.000000  -0.551216
   13  CL 2  S    0.000000   3.657622  -0.000000   0.000000   1.427686
   14  CL 2  X   -0.019383   0.000000   0.000000   0.000000  -0.000000
   15  CL 2  Y    0.000000   0.000000   0.000000   0.000000  -0.000000
   16  CL 2  Z    0.000000  -0.057089   0.000000   0.000000   0.025426
   17  CL 2  X   -0.003589   0.000000   0.000000   0.000000  -0.000000
   18  CL 2  Y    0.000000   0.000000   0.000000   0.000000  -0.000000
   19  CL 2  Z    0.000000  -0.019232   0.000000   0.000000   0.011223
   20  CL 2  S    0.000000  -2.485349   0.000000   0.000000  -1.249016
   21  CL 2  X   -0.033202   0.000000   0.000000   0.000000  -0.000000
   22  CL 2  Y    0.000000   0.000000   0.000000   0.000000  -0.000000
   23  CL 2  Z    0.000000   0.777978   0.000000   0.000000   0.831049
   24  CL 2  X    0.011768   0.000000   0.000000   0.000000  -0.000000
   25  CL 2  Y    0.000000   0.000000   0.000000   0.000000  -0.000000
   26  CL 2  Z    0.000000   0.115173   0.000000   0.000000  -0.090083
   27  CL 2  X    0.050310   0.000000   0.000000   0.000000  -0.000000
   28  CL 2  Y    0.000000   0.000000   0.000000   0.000000  -0.000000
   29  CL 2  Z    0.000000  -0.093298   0.000000   0.000000   0.237525
   30  CL 2  X    0.090047   0.000000   0.000000   0.000000  -0.000000
   31  CL 2  Y    0.000000   0.000000   0.000000   0.000000  -0.000000
   32  CL 2  Z    0.000000  -0.571999   0.000000   0.000000  -0.869741
   33  CL 2 XX    0.000000  -0.365612   0.866025   0.000000  -0.630653
   34  CL 2 YY    0.000000  -0.365612  -0.866025   0.000000  -0.630653
   35  CL 2 ZZ    0.000000  -0.700210   0.000000   0.000000   0.616973
   36  CL 2 XY    0.000000   0.000000   0.000000   1.000000  -0.000000
   37  CL 2 XZ    0.842870   0.000000   0.000000   0.000000  -0.000000
   38  CL 2 YZ    0.000000   0.000000   0.000000   0.000000  -0.000000

                     26         27         28         29         30
                    1.4737     1.4737     2.0784     2.2379     2.2379
                     B2         B1         A1         B1         B2  
    1  H  1  S    0.000000   0.000000   0.915233  -0.000000  -0.000000
    2  H  1  S    0.000000   0.000000  -1.188221  -0.000000  -0.000000
    3  H  1  S    0.000000   0.000000   1.596606  -0.000000  -0.000000
    4  H  1  S    0.000000   0.000000  -0.409039  -0.000000  -0.000000
    5  H  1  X    0.000000   0.984851   0.000000  -0.115354  -0.000000
    6  H  1  Y    0.984851   0.000000   0.000000  -0.000000  -0.115354
    7  H  1  Z    0.000000   0.000000   0.619488  -0.000000  -0.000000
    8  CL 2  S    0.000000   0.000000  -0.003718  -0.000000  -0.000000
    9  CL 2  S    0.000000   0.000000  -0.009997  -0.000000  -0.000000
   10  CL 2  S    0.000000   0.000000   0.012988  -0.000000  -0.000000
   11  CL 2  S    0.000000   0.000000   0.110968  -0.000000  -0.000000
   12  CL 2  S    0.000000   0.000000  -0.064508  -0.000000  -0.000000
   13  CL 2  S    0.000000   0.000000  -0.707235  -0.000000  -0.000000
   14  CL 2  X    0.000000   0.057294   0.000000   0.775363  -0.000000
   15  CL 2  Y    0.057294   0.000000   0.000000  -0.000000   0.775363
   16  CL 2  Z    0.000000   0.000000  -0.495999  -0.000000  -0.000000
   17  CL 2  X    0.000000   0.016303   0.000000   0.255454  -0.000000
   18  CL 2  Y    0.016303   0.000000   0.000000  -0.000000   0.255454
   19  CL 2  Z    0.000000   0.000000  -0.155829  -0.000000  -0.000000
   20  CL 2  S    0.000000   0.000000  -0.111135  -0.000000  -0.000000
   21  CL 2  X    0.000000   0.126761   0.000000   0.524837  -0.000000
   22  CL 2  Y    0.126761   0.000000   0.000000  -0.000000   0.524837
   23  CL 2  Z    0.000000   0.000000  -0.083775  -0.000000  -0.000000
   24  CL 2  X    0.000000  -0.094878   0.000000  -1.970021  -0.000000
   25  CL 2  Y   -0.094878   0.000000   0.000000  -0.000000  -1.970021
   26  CL 2  Z    0.000000   0.000000   1.125781  -0.000000  -0.000000
   27  CL 2  X    0.000000   0.027611   0.000000   2.106688  -0.000000
   28  CL 2  Y    0.027611   0.000000   0.000000  -0.000000   2.106688
   29  CL 2  Z    0.000000   0.000000  -0.891461  -0.000000  -0.000000
   30  CL 2  X    0.000000  -0.315116   0.000000  -1.182441  -0.000000
   31  CL 2  Y   -0.315116   0.000000   0.000000  -0.000000  -1.182441
   32  CL 2  Z    0.000000   0.000000   0.745384  -0.000000  -0.000000
   33  CL 2 XX    0.000000   0.000000   0.275850  -0.000000  -0.000000
   34  CL 2 YY    0.000000   0.000000   0.275850  -0.000000  -0.000000
   35  CL 2 ZZ    0.000000   0.000000  -0.264088  -0.000000  -0.000000
   36  CL 2 XY    0.000000   0.000000   0.000000  -0.000000  -0.000000
   37  CL 2 XZ    0.000000   0.592127   0.000000  -0.042574  -0.000000
   38  CL 2 YZ    0.592127   0.000000   0.000000  -0.000000  -0.042574

                     31         32         33         34         35
                    2.3535     2.5089     3.7246    14.4306    25.7539
                     A1         A1         A1         A1         B1  
    1  H  1  S    0.196622  -1.352315   0.081003   0.024702  -0.000000
    2  H  1  S    1.089974   2.709299   0.208015   0.043627  -0.000000
    3  H  1  S   -0.357850  -1.428640  -0.312282  -0.131660  -0.000000
    4  H  1  S    0.058007  -0.193828   0.741659   0.324129  -0.000000
    5  H  1  X   -0.000000  -0.000000   0.000000   0.000000  -0.025526
    6  H  1  Y   -0.000000  -0.000000   0.000000   0.000000  -0.000000
    7  H  1  Z    1.242144   0.903236   0.370013   0.090795  -0.000000
    8  CL 2  S   -0.010212  -0.002835   0.057619  -0.120772  -0.000000
    9  CL 2  S   -0.029435  -0.009839   0.148569  -0.512171  -0.000000
   10  CL 2  S    0.060854   0.038972  -0.101928   3.502486  -0.000000
   11  CL 2  S    0.184005  -0.059550  -2.608614  -6.527716  -0.000000
   12  CL 2  S   -0.309898   0.136748   5.448903   7.113581  -0.000000
   13  CL 2  S   -0.768470  -0.567910   2.119259   0.926946  -0.000000
   14  CL 2  X   -0.000000  -0.000000   0.000000   0.000000   3.401496
   15  CL 2  Y   -0.000000  -0.000000   0.000000   0.000000  -0.000000
   16  CL 2  Z    0.520209  -0.308707   0.037006  -0.007869  -0.000000
   17  CL 2  X   -0.000000  -0.000000   0.000000   0.000000   3.436544
   18  CL 2  Y   -0.000000  -0.000000   0.000000   0.000000  -0.000000
   19  CL 2  Z    0.182920  -0.096123   0.011576  -0.012971  -0.000000
   20  CL 2  S    0.225022   0.787290  -1.074157  -0.470432  -0.000000
   21  CL 2  X   -0.000000  -0.000000   0.000000   0.000000   0.251706
   22  CL 2  Y   -0.000000  -0.000000   0.000000   0.000000  -0.000000
   23  CL 2  Z    0.364017  -0.675663   0.410163   0.167587  -0.000000
   24  CL 2  X   -0.000000  -0.000000   0.000000   0.000000  -2.407958
   25  CL 2  Y   -0.000000  -0.000000   0.000000   0.000000  -0.000000
   26  CL 2  Z   -1.580999   0.667056  -0.189151  -0.033772  -0.000000
   27  CL 2  X   -0.000000  -0.000000   0.000000   0.000000   1.240202
   28  CL 2  Y   -0.000000  -0.000000   0.000000   0.000000  -0.000000
   29  CL 2  Z    2.707263   0.125728   0.532745   0.131557  -0.000000
   30  CL 2  X   -0.000000  -0.000000   0.000000   0.000000  -0.568024
   31  CL 2  Y   -0.000000  -0.000000   0.000000   0.000000  -0.000000
   32  CL 2  Z   -1.007784   0.594927  -0.436497  -0.161073  -0.000000
   33  CL 2 XX    0.472785   0.109456  -2.544986  -2.383650  -0.000000
   34  CL 2 YY    0.472785   0.109456  -2.544986  -2.383650  -0.000000
   35  CL 2 ZZ   -0.767256  -0.661569  -2.820612  -2.444223  -0.000000
   36  CL 2 XY   -0.000000  -0.000000   0.000000   0.000000  -0.000000
   37  CL 2 XZ   -0.000000  -0.000000   0.000000   0.000000  -0.006342
   38  CL 2 YZ   -0.000000  -0.000000   0.000000   0.000000  -0.000000

                     36         37         38
                   25.7539    25.9266   222.2886
                     B2         A1         A1  
    1  H  1  S   -0.000000   0.062758  -0.004969
    2  H  1  S   -0.000000   0.098581  -0.013521
    3  H  1  S   -0.000000  -0.248984   0.037910
    4  H  1  S   -0.000000   0.184914  -0.090004
    5  H  1  X   -0.000000   0.000000   0.000000
    6  H  1  Y   -0.025526   0.000000   0.000000
    7  H  1  Z   -0.000000   0.020610  -0.024503
    8  CL 2  S   -0.000000  -0.000984  -1.558570
    9  CL 2  S   -0.000000  -0.004010   1.994040
   10  CL 2  S   -0.000000   0.037125  -1.896327
   11  CL 2  S   -0.000000  -0.102187   2.134122
   12  CL 2  S   -0.000000   0.132923  -1.958755
   13  CL 2  S   -0.000000   0.113475  -0.245214
   14  CL 2  X   -0.000000   0.000000   0.000000
   15  CL 2  Y    3.401496   0.000000   0.000000
   16  CL 2  Z   -0.000000   3.426613  -0.007266
   17  CL 2  X   -0.000000   0.000000   0.000000
   18  CL 2  Y    3.436544   0.000000   0.000000
   19  CL 2  Z   -0.000000   3.455361  -0.006093
   20  CL 2  S   -0.000000  -0.081270   0.128577
   21  CL 2  X   -0.000000   0.000000   0.000000
   22  CL 2  Y    0.251706   0.000000   0.000000
   23  CL 2  Z   -0.000000   0.295168  -0.046594
   24  CL 2  X   -0.000000   0.000000   0.000000
   25  CL 2  Y   -2.407958   0.000000   0.000000
   26  CL 2  Z   -0.000000  -2.462888   0.015369
   27  CL 2  X   -0.000000   0.000000   0.000000
   28  CL 2  Y    1.240202   0.000000   0.000000
   29  CL 2  Z   -0.000000   1.343406  -0.038633
   30  CL 2  X   -0.000000   0.000000   0.000000
   31  CL 2  Y   -0.568024   0.000000   0.000000
   32  CL 2  Z   -0.000000  -0.672535   0.045690
   33  CL 2 XX   -0.000000  -0.051930   0.643037
   34  CL 2 YY   -0.000000  -0.051930   0.643037
   35  CL 2 ZZ   -0.000000  -0.102160   0.659077
   36  CL 2 XY   -0.000000   0.000000   0.000000
   37  CL 2 XZ   -0.000000   0.000000   0.000000
   38  CL 2 YZ   -0.006342   0.000000   0.000000

 LZ VALUE ANALYSIS FOR THE MOS
 ----------------------------------------
 MO     1 (    1) HAS LZ(WEIGHT)= 0.00(100.0%) 
 MO     2 (    2) HAS LZ(WEIGHT)= 0.00(100.0%) 
 MO     3 (    3) HAS LZ(WEIGHT)= 0.00(100.0%) 
 MO     4 (    4) HAS LZ(WEIGHT)=-1.00( 50.0%)  1.00( 50.0%) 
 MO     5 (    4) HAS LZ(WEIGHT)=-1.00( 50.0%)  1.00( 50.0%) 
 MO     6 (    5) HAS LZ(WEIGHT)= 0.00(100.0%) 
 MO     7 (    6) HAS LZ(WEIGHT)= 0.00(100.0%) 
 MO     8 (    7) HAS LZ(WEIGHT)=-1.00( 50.0%)  1.00( 50.0%) 
 MO     9 (    7) HAS LZ(WEIGHT)=-1.00( 50.0%)  1.00( 50.0%) 
 MO    10 (    8) HAS LZ(WEIGHT)= 0.00(100.0%) 
 MO    11 (    9) HAS LZ(WEIGHT)= 0.00(100.0%) 
 MO    12 (   10) HAS LZ(WEIGHT)= 0.00(100.0%) 
 MO    13 (   11) HAS LZ(WEIGHT)=-1.00( 50.0%)  1.00( 50.0%) 
 MO    14 (   11) HAS LZ(WEIGHT)=-1.00( 50.0%)  1.00( 50.0%) 
 MO    15 (   12) HAS LZ(WEIGHT)= 0.00(100.0%) 
 MO    16 (   13) HAS LZ(WEIGHT)= 0.00(100.0%) 
 MO    17 (   14) HAS LZ(WEIGHT)= 0.00(100.0%) 
 MO    18 (   15) HAS LZ(WEIGHT)=-1.00( 50.0%)  1.00( 50.0%) 
 MO    19 (   15) HAS LZ(WEIGHT)=-1.00( 50.0%)  1.00( 50.0%) 
 MO    20 (   16) HAS LZ(WEIGHT)=-1.00( 50.0%)  1.00( 50.0%) 
 MO    21 (   16) HAS LZ(WEIGHT)=-1.00( 50.0%)  1.00( 50.0%) 
 MO    22 (   17) HAS LZ(WEIGHT)= 0.00(100.0%) 
 MO    23 (   18) HAS LZ(WEIGHT)=-2.00( 50.0%)  2.00( 50.0%) 
 MO    24 (   18) HAS LZ(WEIGHT)=-2.00( 50.0%)  2.00( 50.0%) 
 MO    25 (   19) HAS LZ(WEIGHT)= 0.00(100.0%) 
 MO    26 (   20) HAS LZ(WEIGHT)=-1.00( 50.0%)  1.00( 50.0%) 
 MO    27 (   20) HAS LZ(WEIGHT)=-1.00( 50.0%)  1.00( 50.0%) 
 MO    28 (   21) HAS LZ(WEIGHT)= 0.00(100.0%) 
 MO    29 (   22) HAS LZ(WEIGHT)=-1.00( 50.0%)  1.00( 50.0%) 
 MO    30 (   22) HAS LZ(WEIGHT)=-1.00( 50.0%)  1.00( 50.0%) 
 MO    31 (   23) HAS LZ(WEIGHT)= 0.00(100.0%) 
 MO    32 (   24) HAS LZ(WEIGHT)= 0.00(100.0%) 
 MO    33 (   25) HAS LZ(WEIGHT)= 0.00(100.0%) 
 MO    34 (   26) HAS LZ(WEIGHT)= 0.00(100.0%) 
 MO    35 (   27) HAS LZ(WEIGHT)=-1.00( 50.0%)  1.00( 50.0%) 
 MO    36 (   27) HAS LZ(WEIGHT)=-1.00( 50.0%)  1.00( 50.0%) 
 MO    37 (   28) HAS LZ(WEIGHT)= 0.00(100.0%) 
 MO    38 (   29) HAS LZ(WEIGHT)= 0.00(100.0%) 

  ----- BETA SET ----- 

          ------------
          EIGENVECTORS
          ------------

                      1          2          3          4          5
                 -101.5613    -9.4768    -7.2411    -7.2314    -7.2314
                     A1         A1         A1         B2         B1  
    1  H  1  S    0.000010   0.000013  -0.000145  -0.000000  -0.000000
    2  H  1  S    0.000031  -0.000669   0.000440  -0.000000  -0.000000
    3  H  1  S   -0.000094   0.001284  -0.000181  -0.000000  -0.000000
    4  H  1  S    0.000244  -0.002804   0.000010  -0.000000  -0.000000
    5  H  1  X    0.000000  -0.000000  -0.000000  -0.000000  -0.000048
    6  H  1  Y    0.000000  -0.000000  -0.000000  -0.000048  -0.000000
    7  H  1  Z    0.000065  -0.000748   0.000283  -0.000000  -0.000000
    8  CL 2  S    0.411639  -0.121765  -0.000809  -0.000000  -0.000000
    9  CL 2  S    0.653898  -0.327380  -0.002208  -0.000000  -0.000000
   10  CL 2  S    0.016178   0.502320   0.003583  -0.000000  -0.000000
   11  CL 2  S   -0.007174   0.594256   0.003827  -0.000000  -0.000000
   12  CL 2  S    0.005823   0.081498   0.000466  -0.000000  -0.000000
   13  CL 2  S    0.000676  -0.008843  -0.000205  -0.000000  -0.000000
   14  CL 2  X    0.000000  -0.000000  -0.000000  -0.000000   1.233941
   15  CL 2  Y    0.000000  -0.000000  -0.000000   1.233941  -0.000000
   16  CL 2  Z   -0.000124  -0.007862   1.233315  -0.000000  -0.000000
   17  CL 2  X    0.000000  -0.000000  -0.000000  -0.000000   0.333556
   18  CL 2  Y    0.000000  -0.000000  -0.000000   0.333556  -0.000000
   19  CL 2  Z   -0.000072  -0.002066   0.333465  -0.000000  -0.000000
   20  CL 2  S   -0.000357   0.004062   0.000090  -0.000000  -0.000000
   21  CL 2  X    0.000000  -0.000000  -0.000000  -0.000000   0.000086
   22  CL 2  Y    0.000000  -0.000000  -0.000000   0.000086  -0.000000
   23  CL 2  Z    0.000118  -0.001323  -0.000010  -0.000000  -0.000000
   24  CL 2  X    0.000000  -0.000000  -0.000000  -0.000000   0.052180
   25  CL 2  Y    0.000000  -0.000000  -0.000000   0.052180  -0.000000
   26  CL 2  Z    0.000046  -0.000521   0.053225  -0.000000  -0.000000
   27  CL 2  X    0.000000  -0.000000  -0.000000  -0.000000  -0.000740
   28  CL 2  Y    0.000000  -0.000000  -0.000000  -0.000740  -0.000000
   29  CL 2  Z    0.000050  -0.000946  -0.000607  -0.000000  -0.000000
   30  CL 2  X    0.000000  -0.000000  -0.000000  -0.000000  -0.000067
   31  CL 2  Y    0.000000  -0.000000  -0.000000  -0.000067  -0.000000
   32  CL 2  Z   -0.000098   0.001168   0.000054  -0.000000  -0.000000
   33  CL 2 XX   -0.001882  -0.011710   0.000183  -0.000000  -0.000000
   34  CL 2 YY   -0.001882  -0.011710   0.000183  -0.000000  -0.000000
   35  CL 2 ZZ   -0.001921  -0.010561  -0.001015  -0.000000  -0.000000
   36  CL 2 XY    0.000000  -0.000000  -0.000000  -0.000000  -0.000000
   37  CL 2 XZ    0.000000  -0.000000  -0.000000  -0.000000  -0.000418
   38  CL 2 YZ    0.000000  -0.000000  -0.000000  -0.000418  -0.000000

                      6          7          8          9         10
                   -0.8518    -0.4778    -0.3356    -0.3356    -0.0239
                     A1         A1         B2         B1         A1  
    1  H  1  S    0.096521  -0.163588  -0.000000  -0.000000   0.071955
    2  H  1  S    0.117420  -0.287225  -0.000000  -0.000000   0.204950
    3  H  1  S   -0.004990  -0.084296  -0.000000  -0.000000   0.708242
    4  H  1  S    0.022140  -0.028399  -0.000000  -0.000000   1.524455
    5  H  1  X   -0.000000  -0.000000  -0.000000   0.026814   0.000000
    6  H  1  Y   -0.000000  -0.000000   0.026814  -0.000000   0.000000
    7  H  1  Z    0.026585  -0.027193  -0.000000  -0.000000  -0.021362
    8  CL 2  S    0.036346   0.012265  -0.000000  -0.000000  -0.009914
    9  CL 2  S    0.104409   0.035302  -0.000000  -0.000000  -0.028560
   10  CL 2  S   -0.215067  -0.073255  -0.000000  -0.000000   0.059478
   11  CL 2  S   -0.374319  -0.133375  -0.000000  -0.000000   0.115655
   12  CL 2  S    0.582368   0.205847  -0.000000  -0.000000  -0.189794
   13  CL 2  S    0.473663   0.290835  -0.000000  -0.000000  -0.463339
   14  CL 2  X   -0.000000  -0.000000  -0.000000  -0.350459   0.000000
   15  CL 2  Y   -0.000000  -0.000000  -0.350459  -0.000000   0.000000
   16  CL 2  Z    0.057054  -0.289242  -0.000000  -0.000000  -0.131008
   17  CL 2  X   -0.000000  -0.000000  -0.000000  -0.086052   0.000000
   18  CL 2  Y   -0.000000  -0.000000  -0.086052  -0.000000   0.000000
   19  CL 2  Z    0.014747  -0.072260  -0.000000  -0.000000  -0.031016
   20  CL 2  S   -0.018295   0.056227  -0.000000  -0.000000  -0.995687
   21  CL 2  X   -0.000000  -0.000000  -0.000000  -0.021674   0.000000
   22  CL 2  Y   -0.000000  -0.000000  -0.021674  -0.000000   0.000000
   23  CL 2  Z    0.009095  -0.029940  -0.000000  -0.000000   0.453361
   24  CL 2  X   -0.000000  -0.000000  -0.000000   0.264392   0.000000
   25  CL 2  Y   -0.000000  -0.000000   0.264392  -0.000000   0.000000
   26  CL 2  Z   -0.042654   0.217933  -0.000000  -0.000000   0.097135
   27  CL 2  X   -0.000000  -0.000000  -0.000000   0.567397   0.000000
   28  CL 2  Y   -0.000000  -0.000000   0.567397  -0.000000   0.000000
   29  CL 2  Z   -0.061235   0.409850  -0.000000  -0.000000   0.275175
   30  CL 2  X   -0.000000  -0.000000  -0.000000   0.366217   0.000000
   31  CL 2  Y   -0.000000  -0.000000   0.366217  -0.000000   0.000000
   32  CL 2  Z   -0.017205   0.169518  -0.000000  -0.000000   0.346957
   33  CL 2 XX    0.003026   0.022900  -0.000000  -0.000000  -0.015950
   34  CL 2 YY    0.003026   0.022900  -0.000000  -0.000000  -0.015950
   35  CL 2 ZZ    0.038880  -0.045108  -0.000000  -0.000000   0.046282
   36  CL 2 XY   -0.000000  -0.000000  -0.000000  -0.000000   0.000000
   37  CL 2 XZ   -0.000000  -0.000000  -0.000000  -0.016951   0.000000
   38  CL 2 YZ   -0.000000  -0.000000  -0.016951  -0.000000   0.000000

                     11         12         13         14         15
                    0.0549     0.0656     0.0734     0.0734     0.1259
                     A1         A1         B2         B1         A1  
    1  H  1  S    0.124730   0.088822   0.000000   0.000000   0.011487
    2  H  1  S    0.311806   0.197429   0.000000   0.000000   0.137371
    3  H  1  S    1.844437   0.768520   0.000000   0.000000  -0.428934
    4  H  1  S   -0.561866  -0.688123   0.000000   0.000000  -3.995693
    5  H  1  X   -0.000000   0.000000   0.000000   0.003977  -0.000000
    6  H  1  Y   -0.000000   0.000000   0.003977   0.000000  -0.000000
    7  H  1  Z   -0.003901   0.021175   0.000000   0.000000  -0.016513
    8  CL 2  S    0.000442  -0.007320   0.000000   0.000000  -0.009385
    9  CL 2  S    0.001432  -0.020823   0.000000   0.000000  -0.026519
   10  CL 2  S   -0.004613   0.040640   0.000000   0.000000   0.049907
   11  CL 2  S    0.004382   0.102164   0.000000   0.000000   0.142531
   12  CL 2  S    0.044141  -0.120900   0.000000   0.000000  -0.161023
   13  CL 2  S   -0.237573  -0.628870   0.000000   0.000000  -1.033173
   14  CL 2  X   -0.000000   0.000000   0.000000   0.115744  -0.000000
   15  CL 2  Y   -0.000000   0.000000   0.115744   0.000000  -0.000000
   16  CL 2  Z   -0.150738   0.017375   0.000000   0.000000  -0.081956
   17  CL 2  X   -0.000000   0.000000   0.000000   0.030512  -0.000000
   18  CL 2  Y   -0.000000   0.000000   0.030512   0.000000  -0.000000
   19  CL 2  Z   -0.037248   0.006386   0.000000   0.000000  -0.020507
   20  CL 2  S   -1.305512   0.595172   0.000000   0.000000   4.752281
   21  CL 2  X   -0.000000   0.000000   0.000000   1.435751  -0.000000
   22  CL 2  Y   -0.000000   0.000000   1.435751   0.000000  -0.000000
   23  CL 2  Z   -0.177596   1.081007   0.000000   0.000000  -2.333471
   24  CL 2  X   -0.000000   0.000000   0.000000  -0.114501  -0.000000
   25  CL 2  Y   -0.000000   0.000000  -0.114501   0.000000  -0.000000
   26  CL 2  Z    0.126854  -0.033975   0.000000   0.000000   0.072324
   27  CL 2  X   -0.000000   0.000000   0.000000  -0.126556  -0.000000
   28  CL 2  Y   -0.000000   0.000000  -0.126556   0.000000  -0.000000
   29  CL 2  Z    0.250979   0.054388   0.000000   0.000000   0.145808
   30  CL 2  X   -0.000000   0.000000   0.000000  -0.646997  -0.000000
   31  CL 2  Y   -0.000000   0.000000  -0.646997   0.000000  -0.000000
   32  CL 2  Z    1.052805  -0.091350   0.000000   0.000000   0.356044
   33  CL 2 XX   -0.037139  -0.005056   0.000000   0.000000   0.063053
   34  CL 2 YY   -0.037139  -0.005056   0.000000   0.000000   0.063053
   35  CL 2 ZZ    0.123760   0.089905   0.000000   0.000000   0.018468
   36  CL 2 XY   -0.000000   0.000000   0.000000   0.000000  -0.000000
   37  CL 2 XZ   -0.000000   0.000000   0.000000   0.005075  -0.000000
   38  CL 2 YZ   -0.000000   0.000000   0.005075   0.000000  -0.000000

                     16         17         18         19         20
                    0.3486     0.4494     0.4518     0.4518     0.7367
                     A1         A1         B2         B1         B2  
    1  H  1  S   -0.118831  -0.074850   0.000000   0.000000   0.000000
    2  H  1  S   -1.545539  -0.375917   0.000000   0.000000   0.000000
    3  H  1  S    3.391264   1.696033   0.000000   0.000000   0.000000
    4  H  1  S    0.271864  -1.058513   0.000000   0.000000   0.000000
    5  H  1  X    0.000000  -0.000000   0.000000   0.006222   0.000000
    6  H  1  Y    0.000000  -0.000000   0.006222   0.000000  -0.380164
    7  H  1  Z   -0.074328   0.005730   0.000000   0.000000   0.000000
    8  CL 2  S    0.002414  -0.004063   0.000000   0.000000   0.000000
    9  CL 2  S    0.007117  -0.011722   0.000000   0.000000   0.000000
   10  CL 2  S   -0.016475   0.024488   0.000000   0.000000   0.000000
   11  CL 2  S   -0.021046   0.051500   0.000000   0.000000   0.000000
   12  CL 2  S   -0.011120  -0.108985   0.000000   0.000000   0.000000
   13  CL 2  S   -0.031913  -0.379776   0.000000   0.000000   0.000000
   14  CL 2  X    0.000000  -0.000000   0.000000   0.222961   0.000000
   15  CL 2  Y    0.000000  -0.000000   0.222961   0.000000  -0.019383
   16  CL 2  Z    0.020068   0.231961   0.000000   0.000000   0.000000
   17  CL 2  X    0.000000  -0.000000   0.000000   0.041996   0.000000
   18  CL 2  Y    0.000000  -0.000000   0.041996   0.000000  -0.003589
   19  CL 2  Z    0.003654   0.044472   0.000000   0.000000   0.000000
   20  CL 2  S   -1.980461   0.242160   0.000000   0.000000   0.000000
   21  CL 2  X    0.000000  -0.000000   0.000000  -1.296481   0.000000
   22  CL 2  Y    0.000000  -0.000000  -1.296480   0.000000  -0.033202
   23  CL 2  Z    1.605243  -1.342773   0.000000   0.000000   0.000000
   24  CL 2  X    0.000000  -0.000000   0.000000  -0.104477   0.000000
   25  CL 2  Y    0.000000  -0.000000  -0.104477   0.000000   0.011768
   26  CL 2  Z    0.003583  -0.108258   0.000000   0.000000   0.000000
   27  CL 2  X    0.000000  -0.000000   0.000000  -1.067155   0.000000
   28  CL 2  Y    0.000000  -0.000000  -1.067155   0.000000   0.050310
   29  CL 2  Z   -0.117481  -1.116670   0.000000   0.000000   0.000000
   30  CL 2  X    0.000000  -0.000000   0.000000   2.223783   0.000000
   31  CL 2  Y    0.000000  -0.000000   2.223783   0.000000   0.090047
   32  CL 2  Z   -0.480158   2.612264   0.000000   0.000000   0.000000
   33  CL 2 XX    0.098375   0.005164   0.000000   0.000000   0.000000
   34  CL 2 YY    0.098375   0.005164   0.000000   0.000000   0.000000
   35  CL 2 ZZ   -0.178664  -0.000582   0.000000   0.000000   0.000000
   36  CL 2 XY    0.000000  -0.000000   0.000000   0.000000   0.000000
   37  CL 2 XZ    0.000000  -0.000000   0.000000   0.011404   0.000000
   38  CL 2 YZ    0.000000  -0.000000   0.011404   0.000000   0.842870

                     21         22         23         24         25
                    0.7367     0.7877     0.8603     0.8603     1.0476
                     B1         A1         A1         A2         A1  
    1  H  1  S    0.000000   0.052137   0.000000   0.000000  -0.001483
    2  H  1  S    0.000000   0.003194   0.000000   0.000000  -1.071629
    3  H  1  S    0.000000  -0.859627   0.000000   0.000000   0.765647
    4  H  1  S    0.000000   1.799674  -0.000000   0.000000   0.640492
    5  H  1  X   -0.380164   0.000000   0.000000   0.000000  -0.000000
    6  H  1  Y    0.000000   0.000000   0.000000   0.000000  -0.000000
    7  H  1  Z    0.000000  -0.162991   0.000000   0.000000   0.296822
    8  CL 2  S    0.000000  -0.027728   0.000000   0.000000  -0.010512
    9  CL 2  S    0.000000  -0.085557   0.000000   0.000000  -0.032853
   10  CL 2  S    0.000000   0.237023   0.000000   0.000000   0.095218
   11  CL 2  S    0.000000   0.038937   0.000000   0.000000  -0.005049
   12  CL 2  S    0.000000  -1.418808   0.000000   0.000000  -0.551216
   13  CL 2  S    0.000000   3.657622  -0.000000   0.000000   1.427686
   14  CL 2  X   -0.019383   0.000000   0.000000   0.000000  -0.000000
   15  CL 2  Y    0.000000   0.000000   0.000000   0.000000  -0.000000
   16  CL 2  Z    0.000000  -0.057089   0.000000   0.000000   0.025426
   17  CL 2  X   -0.003589   0.000000   0.000000   0.000000  -0.000000
   18  CL 2  Y    0.000000   0.000000   0.000000   0.000000  -0.000000
   19  CL 2  Z    0.000000  -0.019232   0.000000   0.000000   0.011223
   20  CL 2  S    0.000000  -2.485349   0.000000   0.000000  -1.249016
   21  CL 2  X   -0.033202   0.000000   0.000000   0.000000  -0.000000
   22  CL 2  Y    0.000000   0.000000   0.000000   0.000000  -0.000000
   23  CL 2  Z    0.000000   0.777978   0.000000   0.000000   0.831049
   24  CL 2  X    0.011768   0.000000   0.000000   0.000000  -0.000000
   25  CL 2  Y    0.000000   0.000000   0.000000   0.000000  -0.000000
   26  CL 2  Z    0.000000   0.115173   0.000000   0.000000  -0.090083
   27  CL 2  X    0.050310   0.000000   0.000000   0.000000  -0.000000
   28  CL 2  Y    0.000000   0.000000   0.000000   0.000000  -0.000000
   29  CL 2  Z    0.000000  -0.093298   0.000000   0.000000   0.237525
   30  CL 2  X    0.090047   0.000000   0.000000   0.000000  -0.000000
   31  CL 2  Y    0.000000   0.000000   0.000000   0.000000  -0.000000
   32  CL 2  Z    0.000000  -0.571999   0.000000   0.000000  -0.869741
   33  CL 2 XX    0.000000  -0.365612   0.866025   0.000000  -0.630653
   34  CL 2 YY    0.000000  -0.365612  -0.866025   0.000000  -0.630653
   35  CL 2 ZZ    0.000000  -0.700210   0.000000   0.000000   0.616973
   36  CL 2 XY    0.000000   0.000000   0.000000   1.000000  -0.000000
   37  CL 2 XZ    0.842870   0.000000   0.000000   0.000000  -0.000000
   38  CL 2 YZ    0.000000   0.000000   0.000000   0.000000  -0.000000

                     26         27         28         29         30
                    1.4737     1.4737     2.0784     2.2379     2.2379
                     B2         B1         A1         B1         B2  
    1  H  1  S    0.000000   0.000000   0.915233  -0.000000  -0.000000
    2  H  1  S    0.000000   0.000000  -1.188221  -0.000000  -0.000000
    3  H  1  S    0.000000   0.000000   1.596606  -0.000000  -0.000000
    4  H  1  S    0.000000   0.000000  -0.409039  -0.000000  -0.000000
    5  H  1  X    0.000000   0.984851   0.000000  -0.115354  -0.000000
    6  H  1  Y    0.984851   0.000000   0.000000  -0.000000  -0.115354
    7  H  1  Z    0.000000   0.000000   0.619488  -0.000000  -0.000000
    8  CL 2  S    0.000000   0.000000  -0.003718  -0.000000  -0.000000
    9  CL 2  S    0.000000   0.000000  -0.009997  -0.000000  -0.000000
   10  CL 2  S    0.000000   0.000000   0.012988  -0.000000  -0.000000
   11  CL 2  S    0.000000   0.000000   0.110968  -0.000000  -0.000000
   12  CL 2  S    0.000000   0.000000  -0.064508  -0.000000  -0.000000
   13  CL 2  S    0.000000   0.000000  -0.707235  -0.000000  -0.000000
   14  CL 2  X    0.000000   0.057294   0.000000   0.775363  -0.000000
   15  CL 2  Y    0.057294   0.000000   0.000000  -0.000000   0.775363
   16  CL 2  Z    0.000000   0.000000  -0.495999  -0.000000  -0.000000
   17  CL 2  X    0.000000   0.016303   0.000000   0.255454  -0.000000
   18  CL 2  Y    0.016303   0.000000   0.000000  -0.000000   0.255454
   19  CL 2  Z    0.000000   0.000000  -0.155829  -0.000000  -0.000000
   20  CL 2  S    0.000000   0.000000  -0.111135  -0.000000  -0.000000
   21  CL 2  X    0.000000   0.126761   0.000000   0.524837  -0.000000
   22  CL 2  Y    0.126761   0.000000   0.000000  -0.000000   0.524837
   23  CL 2  Z    0.000000   0.000000  -0.083775  -0.000000  -0.000000
   24  CL 2  X    0.000000  -0.094878   0.000000  -1.970021  -0.000000
   25  CL 2  Y   -0.094878   0.000000   0.000000  -0.000000  -1.970021
   26  CL 2  Z    0.000000   0.000000   1.125781  -0.000000  -0.000000
   27  CL 2  X    0.000000   0.027611   0.000000   2.106688  -0.000000
   28  CL 2  Y    0.027611   0.000000   0.000000  -0.000000   2.106688
   29  CL 2  Z    0.000000   0.000000  -0.891461  -0.000000  -0.000000
   30  CL 2  X    0.000000  -0.315116   0.000000  -1.182441  -0.000000
   31  CL 2  Y   -0.315116   0.000000   0.000000  -0.000000  -1.182441
   32  CL 2  Z    0.000000   0.000000   0.745384  -0.000000  -0.000000
   33  CL 2 XX    0.000000   0.000000   0.275850  -0.000000  -0.000000
   34  CL 2 YY    0.000000   0.000000   0.275850  -0.000000  -0.000000
   35  CL 2 ZZ    0.000000   0.000000  -0.264088  -0.000000  -0.000000
   36  CL 2 XY    0.000000   0.000000   0.000000  -0.000000  -0.000000
   37  CL 2 XZ    0.000000   0.592127   0.000000  -0.042574  -0.000000
   38  CL 2 YZ    0.592127   0.000000   0.000000  -0.000000  -0.042574

                     31         32         33         34         35
                    2.3535     2.5089     3.7246    14.4306    25.7539
                     A1         A1         A1         A1         B1  
    1  H  1  S    0.196622  -1.352315   0.081003   0.024702  -0.000000
    2  H  1  S    1.089974   2.709299   0.208015   0.043627  -0.000000
    3  H  1  S   -0.357850  -1.428640  -0.312282  -0.131660  -0.000000
    4  H  1  S    0.058007  -0.193828   0.741659   0.324129  -0.000000
    5  H  1  X   -0.000000  -0.000000   0.000000   0.000000  -0.025526
    6  H  1  Y   -0.000000  -0.000000   0.000000   0.000000  -0.000000
    7  H  1  Z    1.242144   0.903236   0.370013   0.090795  -0.000000
    8  CL 2  S   -0.010212  -0.002835   0.057619  -0.120772  -0.000000
    9  CL 2  S   -0.029435  -0.009839   0.148569  -0.512171  -0.000000
   10  CL 2  S    0.060854   0.038972  -0.101928   3.502486  -0.000000
   11  CL 2  S    0.184005  -0.059550  -2.608614  -6.527716  -0.000000
   12  CL 2  S   -0.309898   0.136748   5.448903   7.113581  -0.000000
   13  CL 2  S   -0.768470  -0.567910   2.119259   0.926946  -0.000000
   14  CL 2  X   -0.000000  -0.000000   0.000000   0.000000   3.401496
   15  CL 2  Y   -0.000000  -0.000000   0.000000   0.000000  -0.000000
   16  CL 2  Z    0.520209  -0.308707   0.037006  -0.007869  -0.000000
   17  CL 2  X   -0.000000  -0.000000   0.000000   0.000000   3.436544
   18  CL 2  Y   -0.000000  -0.000000   0.000000   0.000000  -0.000000
   19  CL 2  Z    0.182920  -0.096123   0.011576  -0.012971  -0.000000
   20  CL 2  S    0.225022   0.787290  -1.074157  -0.470432  -0.000000
   21  CL 2  X   -0.000000  -0.000000   0.000000   0.000000   0.251706
   22  CL 2  Y   -0.000000  -0.000000   0.000000   0.000000  -0.000000
   23  CL 2  Z    0.364017  -0.675663   0.410163   0.167587  -0.000000
   24  CL 2  X   -0.000000  -0.000000   0.000000   0.000000  -2.407958
   25  CL 2  Y   -0.000000  -0.000000   0.000000   0.000000  -0.000000
   26  CL 2  Z   -1.580999   0.667056  -0.189151  -0.033772  -0.000000
   27  CL 2  X   -0.000000  -0.000000   0.000000   0.000000   1.240202
   28  CL 2  Y   -0.000000  -0.000000   0.000000   0.000000  -0.000000
   29  CL 2  Z    2.707263   0.125728   0.532745   0.131557  -0.000000
   30  CL 2  X   -0.000000  -0.000000   0.000000   0.000000  -0.568024
   31  CL 2  Y   -0.000000  -0.000000   0.000000   0.000000  -0.000000
   32  CL 2  Z   -1.007784   0.594927  -0.436497  -0.161073  -0.000000
   33  CL 2 XX    0.472785   0.109456  -2.544986  -2.383650  -0.000000
   34  CL 2 YY    0.472785   0.109456  -2.544986  -2.383650  -0.000000
   35  CL 2 ZZ   -0.767256  -0.661569  -2.820612  -2.444223  -0.000000
   36  CL 2 XY   -0.000000  -0.000000   0.000000   0.000000  -0.000000
   37  CL 2 XZ   -0.000000  -0.000000   0.000000   0.000000  -0.006342
   38  CL 2 YZ   -0.000000  -0.000000   0.000000   0.000000  -0.000000

                     36         37         38
                   25.7539    25.9266   222.2886
                     B2         A1         A1  
    1  H  1  S   -0.000000   0.062758  -0.004969
    2  H  1  S   -0.000000   0.098581  -0.013521
    3  H  1  S   -0.000000  -0.248984   0.037910
    4  H  1  S   -0.000000   0.184914  -0.090004
    5  H  1  X   -0.000000   0.000000   0.000000
    6  H  1  Y   -0.025526   0.000000   0.000000
    7  H  1  Z   -0.000000   0.020610  -0.024503
    8  CL 2  S   -0.000000  -0.000984  -1.558570
    9  CL 2  S   -0.000000  -0.004010   1.994040
   10  CL 2  S   -0.000000   0.037125  -1.896327
   11  CL 2  S   -0.000000  -0.102187   2.134122
   12  CL 2  S   -0.000000   0.132923  -1.958755
   13  CL 2  S   -0.000000   0.113475  -0.245214
   14  CL 2  X   -0.000000   0.000000   0.000000
   15  CL 2  Y    3.401496   0.000000   0.000000
   16  CL 2  Z   -0.000000   3.426613  -0.007266
   17  CL 2  X   -0.000000   0.000000   0.000000
   18  CL 2  Y    3.436544   0.000000   0.000000
   19  CL 2  Z   -0.000000   3.455361  -0.006093
   20  CL 2  S   -0.000000  -0.081270   0.128577
   21  CL 2  X   -0.000000   0.000000   0.000000
   22  CL 2  Y    0.251706   0.000000   0.000000
   23  CL 2  Z   -0.000000   0.295168  -0.046594
   24  CL 2  X   -0.000000   0.000000   0.000000
   25  CL 2  Y   -2.407958   0.000000   0.000000
   26  CL 2  Z   -0.000000  -2.462888   0.015369
   27  CL 2  X   -0.000000   0.000000   0.000000
   28  CL 2  Y    1.240202   0.000000   0.000000
   29  CL 2  Z   -0.000000   1.343406  -0.038633
   30  CL 2  X   -0.000000   0.000000   0.000000
   31  CL 2  Y   -0.568024   0.000000   0.000000
   32  CL 2  Z   -0.000000  -0.672535   0.045690
   33  CL 2 XX   -0.000000  -0.051930   0.643037
   34  CL 2 YY   -0.000000  -0.051930   0.643037
   35  CL 2 ZZ   -0.000000  -0.102160   0.659077
   36  CL 2 XY   -0.000000   0.000000   0.000000
   37  CL 2 XZ   -0.000000   0.000000   0.000000
   38  CL 2 YZ   -0.006342   0.000000   0.000000
 ...... END OF UHF CALCULATION ......
 STEP CPU TIME =     1.23 TOTAL CPU TIME =          1.3 (      0.0 MIN)
 TOTAL WALL CLOCK TIME=          1.3 SECONDS, CPU UTILIZATION IS    98.44%

     ---------------------------------------------------------------------
     PROPERTIES FOR THE B3LYP    DFT FUNCTIONAL (UHF  TYPE) DENSITY MATRIX
     ---------------------------------------------------------------------

          -----------------
          ENERGY COMPONENTS
          -----------------

         WAVEFUNCTION NORMALIZATION =       1.0000000000

                ONE ELECTRON ENERGY =    -649.8637592837
                TWO ELECTRON ENERGY =     182.0402431398
           NUCLEAR REPULSION ENERGY =       7.0579109031
                                      ------------------
                       TOTAL ENERGY =    -460.7656052408

 ELECTRON-ELECTRON POTENTIAL ENERGY =     182.0402431398
  NUCLEUS-ELECTRON POTENTIAL ENERGY =   -1109.6016553406
   NUCLEUS-NUCLEUS POTENTIAL ENERGY =       7.0579109031
                                      ------------------
             TOTAL POTENTIAL ENERGY =    -920.5035012977
               TOTAL KINETIC ENERGY =     459.7378960568
                 VIRIAL RATIO (V/T) =       2.0022354241

          ---------------------------------------
          MULLIKEN AND LOWDIN POPULATION ANALYSES
          ---------------------------------------

     ATOMIC MULLIKEN POPULATION IN EACH MOLECULAR ORBITAL
        ALPHA ORBITALS

                      1          2          3          4          5

                  1.000000   1.000000   1.000000   1.000000   1.000000

    1             0.000002  -0.000193  -0.000037  -0.000001  -0.000001
    2             0.999998   1.000193   1.000037   1.000001   1.000001

                      6          7          8          9

                  1.000000   1.000000   1.000000   1.000000

    1             0.120569   0.297407   0.006344   0.006344
    2             0.879431   0.702593   0.993656   0.993656

     ATOMIC MULLIKEN POPULATION IN EACH MOLECULAR ORBITAL
         BETA ORBITALS

                      1          2          3          4          5

                  1.000000   1.000000   1.000000   1.000000   1.000000

    1             0.000002  -0.000193  -0.000037  -0.000001  -0.000001
    2             0.999998   1.000193   1.000037   1.000001   1.000001

                      6          7          8          9

                  1.000000   1.000000   1.000000   1.000000

    1             0.120569   0.297407   0.006344   0.006344
    2             0.879431   0.702593   0.993656   0.993656

     ATOMIC SPIN POPULATION (ALPHA MINUS BETA)
       ATOM         MULL.POP.                    LOW.POP.
    1 H            -0.000000                     0.000000
    2 CL            0.000000                     0.000000


          ********* ALL ELECTRONS ********

               ----- POPULATIONS IN EACH AO -----
                             MULLIKEN      LOWDIN
              1  H  1  S      0.24157     0.25551
              2  H  1  S      0.49385     0.42097
              3  H  1  S      0.05041     0.14751
              4  H  1  S      0.02515     0.03161
              5  H  1  X      0.01269     0.02662
              6  H  1  Y      0.01269     0.02662
              7  H  1  Z      0.02452     0.05268
              8  CL 2  S      0.77727     0.89967
              9  CL 2  S      1.18733     1.08454
             10  CL 2  S      0.90148     0.91998
             11  CL 2  S      1.06169     0.98805
             12  CL 2  S      1.01682     0.52046
             13  CL 2  S      0.94118     0.50616
             14  CL 2  X      2.48533     1.50445
             15  CL 2  Y      2.48533     1.50445
             16  CL 2  Z      2.46055     1.48611
             17  CL 2  X     -0.51276     0.31527
             18  CL 2  Y     -0.51276     0.31527
             19  CL 2  Z     -0.49641     0.29544
             20  CL 2  S     -0.01096     0.10387
             21  CL 2  X     -0.02101     0.08468
             22  CL 2  Y     -0.02101     0.08468
             23  CL 2  Z     -0.02906     0.05336
             24  CL 2  X      0.40070     0.60116
             25  CL 2  Y      0.40070     0.60116
             26  CL 2  Z      0.30735     0.49414
             27  CL 2  X      1.06961     0.97334
             28  CL 2  Y      1.06961     0.97334
             29  CL 2  Z      0.72627     0.63924
             30  CL 2  X      0.56466     0.49399
             31  CL 2  Y      0.56466     0.49399
             32  CL 2  Z      0.25386     0.29896
             33  CL 2 XX      0.01052     0.26377
             34  CL 2 YY      0.01052     0.26377
             35  CL 2 ZZ      0.04609     0.27420
             36  CL 2 XY      0.00000     0.00000
             37  CL 2 XZ      0.00079     0.00048
             38  CL 2 YZ      0.00079     0.00048

          ----- MULLIKEN ATOMIC OVERLAP POPULATIONS -----
          (OFF-DIAGONAL ELEMENTS NEED TO BE MULTIPLIED BY 2)

             1           2

    1    0.5790075
    2    0.2818595  16.8572734

          TOTAL MULLIKEN AND LOWDIN ATOMIC POPULATIONS
       ATOM         MULL.POP.    CHARGE          LOW.POP.     CHARGE
    1 H             0.860867    0.139133         0.961527    0.038473
    2 CL           17.139133   -0.139133        17.038473   -0.038473

          -------------------------------
          BOND ORDER AND VALENCE ANALYSIS     BOND ORDER THRESHOLD=0.050
          -------------------------------

                   BOND                       BOND                       BOND
  ATOM PAIR DIST  ORDER      ATOM PAIR DIST  ORDER      ATOM PAIR DIST  ORDER
    1   2  1.275  0.999

                       TOTAL       BONDED        FREE
      ATOM            VALENCE     VALENCE     VALENCE
    1 H                 0.999       0.999       0.000
    2 CL                0.999       0.999      -0.000

          -----------------------------------------
          ATOMIC SPIN DENSITY AT THE NUCLEUS (A.U.)
          -----------------------------------------
                            SPIN DENS    ALPHA DENS     BETA DENS
    1  H            1.0    -0.0000000       0.18835       0.18835
    2  CL          17.0     0.0000000    1560.82887    1560.82887

          ---------------------
          ELECTROSTATIC MOMENTS
          ---------------------

 POINT   1           X           Y           Z (BOHR)    CHARGE
                 0.000000    0.000000   -0.000000        0.00 (A.U.)
         DX          DY          DZ         /D/  (DEBYE)
     0.000000    0.000000   -1.393643    1.393643
 ...... END OF PROPERTY EVALUATION ......
 STEP CPU TIME =     0.01 TOTAL CPU TIME =          1.3 (      0.0 MIN)
 TOTAL WALL CLOCK TIME=          1.3 SECONDS, CPU UTILIZATION IS    99.22%
               580000  WORDS OF DYNAMIC MEMORY USED
 EXECUTION OF GAMESS TERMINATED NORMALLY Tue Oct  1 12:49:39 2019
 DDI: 263640 bytes (0.3 MB / 0 MWords) used by master data server.

 ----------------------------------------
 CPU timing information for all processes
 ========================================
 0: 1.260 + 0.12 = 1.272
 ----------------------------------------
 ddikick.x: exited gracefully.
----- accounting info -----
Files used on the master node amlan-PT-3420 were:
-rw-rw-r-- 1 akroy akroy   49386 Oct  1 12:49 /tmp/hcl_all.dat
-rw-rw-r-- 1 akroy akroy     289 Oct  1 12:49 /tmp/hcl_all.F05
-rw-rw-r-- 1 akroy akroy  900080 Oct  1 12:49 /tmp/hcl_all.F08
-rw-rw-r-- 1 akroy akroy 1930480 Oct  1 12:49 /tmp/hcl_all.F10
Tue Oct  1 12:49:42 IST 2019
0.0u 0.0s 0:04.33 0.2% 0+0k 0+16io 0pf+0w
