----- GAMESS execution script 'rungms' -----
This job is running on host amlan-PT-3420
under operating system Linux at Fri Dec 13 16:16:21 IST 2019
Available scratch disk space (Kbyte units) at beginning of the job is
Filesystem      1K-blocks     Used  Available Use% Mounted on
/dev/sda3      1916812448 68415604 1751005332   4% /
GAMESS temporary binary files will be written to /tmp
GAMESS supplementary output files will be written to /tmp
Copying input file f2_b3lyp.inp to your run's scratch directory...

 Distributed Data Interface kickoff program.
 Initiating 1 compute processes on 1 nodes to run the following command:
 /home/akroy/gamess/gamess.01.x f2_b3lyp 

          ******************************************************
          *         GAMESS VERSION = 30 SEP 2018 (R3)         *
          *             FROM IOWA STATE UNIVERSITY             *
          * M.W.SCHMIDT, K.K.BALDRIDGE, J.A.BOATZ, S.T.ELBERT, *
          *   M.S.GORDON, J.H.JENSEN, S.KOSEKI, N.MATSUNAGA,   *
          *          K.A.NGUYEN, S.J.SU, T.L.WINDUS,           *
          *       TOGETHER WITH M.DUPUIS, J.A.MONTGOMERY       *
          *         J.COMPUT.CHEM.  14, 1347-1363(1993)        *
          **************** 64 BIT LINUX VERSION ****************

  SINCE 1993, STUDENTS AND POSTDOCS WORKING AT IOWA STATE UNIVERSITY
  AND ALSO IN THEIR VARIOUS JOBS AFTER LEAVING ISU HAVE MADE IMPORTANT
  CONTRIBUTIONS TO THE CODE:
     IVANA ADAMOVIC, CHRISTINE AIKENS, YURI ALEXEEV, POOJA ARORA,
     ANDREY ASADCHEV, ROB BELL, PRADIPTA BANDYOPADHYAY, JONATHAN BENTZ,
     BRETT BODE, KURT BRORSEN, CALEB CARLIN, GALINA CHABAN, WEI CHEN,
     CHEOL HO CHOI, PAUL DAY, ALBERT DEFUSCO, NUWAN DESILVA, TIM DUDLEY,
     DMITRI FEDOROV, ALEX FINDLATER, GRAHAM FLETCHER, MARK FREITAG,
     KURT GLAESEMANN, ANASTASIA GUNINA,
     DAN KEMP, GRANT MERRILL, NORIYUKI MINEZAWA, JONATHAN MULLIN,
     TAKESHI NAGATA, SEAN NEDD, HEATHER NETZLOFF, BOSILJKA NJEGIC, RYAN OLSON,
     MIKE PAK, BUU PHAM,
     SPENCER PRUITT, LUKE ROSKOP, JIM SHOEMAKER, LYUDMILA SLIPCHENKO,
     TONY SMITH, SAROM SOK LEANG, JIE SONG, TETSUYA TAKETSUGU, SIMON WEBB,
     PENG XU, SOOHAENG YOO, FEDERICO ZAHARIEV

  ADDITIONAL CODE HAS BEEN PROVIDED BY COLLABORATORS IN OTHER GROUPS:
     IOWA STATE UNIVERSITY:
          JOE IVANIC, AARON WEST, LAIMUTIS BYTAUTAS, KLAUS RUEDENBERG
     UNIVERSITY OF TOKYO: KIMIHIKO HIRAO, TAKAHITO NAKAJIMA,
          TAKAO TSUNEDA, MUNEAKI KAMIYA, SUSUMU YANAGISAWA,
          KIYOSHI YAGI, MAHITO CHIBA, SEIKEN TOKURA, NAOAKI KAWAKAMI
     UNIVERSITY OF AARHUS: FRANK JENSEN
     UNIVERSITY OF IOWA: VISVALDAS KAIRYS, HUI LI
     NATIONAL INST. OF STANDARDS AND TECHNOLOGY: WALT STEVENS, DAVID GARMER
     UNIVERSITY OF PISA: BENEDETTA MENNUCCI, JACOPO TOMASI
     UNIVERSITY OF MEMPHIS: HENRY KURTZ, PRAKASHAN KORAMBATH
     UNIVERSITY OF ALBERTA: TOBY ZENG, MARIUSZ KLOBUKOWSKI
     UNIVERSITY OF NEW ENGLAND: MARK SPACKMAN
     MIE UNIVERSITY: HIROAKI UMEDA
     NAT. INST. OF ADVANCED INDUSTRIAL SCIENCE AND TECHNOLOGY: KAZUO KITAURA
     MICHIGAN STATE UNIVERSITY:
          KAROL KOWALSKI, MARTA WLOCH, JEFFREY GOUR, JESSE LUTZ,
          WEI LI, JUN SHEN, J. EMILIANO DEUSTUA, PIOTR PIECUCH
     UNIVERSITY OF MINNESOTA:
          YINAN SHU
     UNIVERSITY OF SILESIA: MONIKA MUSIAL, STANISLAW KUCHARSKI
     FACULTES UNIVERSITAIRES NOTRE-DAME DE LA PAIX:
          OLIVIER QUINET, BENOIT CHAMPAGNE
     UNIVERSITY OF CALIFORNIA - SANTA BARBARA: BERNARD KIRTMAN
     INSTITUTE FOR MOLECULAR SCIENCE:
          KAZUYA ISHIMURA, MICHIO KATOUDA, AND SHIGERU NAGASE
     UNIVERSITY OF NOTRE DAME: ANNA POMOGAEVA, DAN CHIPMAN
     KYUSHU UNIVERSITY:
          HARUYUKI NAKANO,
          FENG LONG GU, JACEK KORCHOWIEC, MARCIN MAKOWSKI, AND YURIKO AOKI,
          HIROTOSHI MORI AND EISAKU MIYOSHI
     PENNSYLVANIA STATE UNIVERSITY:
          TZVETELIN IORDANOV, CHET SWALINA, JONATHAN SKONE,
          SHARON HAMMES-SCHIFFER
     WASEDA UNIVERSITY:
          MASATO KOBAYASHI, TOMOKO AKAMA, TSUGUKI TOUMA,
          TAKESHI YOSHIKAWA, YASUHIRO IKABATA, JUNJI SEINO,
          YUYA NAKAJIMA, HIROMI NAKAI
     NANJING UNIVERSITY: SHUHUA LI
     UNIVERSITY OF NEBRASKA:
          PEIFENG SU, DEJUN SI, NANDUN THELLAMUREGE, YALI WANG, HUI LI
     UNIVERSITY OF ZURICH: ROBERTO PEVERATI, KIM BALDRIDGE
     N. COPERNICUS UNIVERSITY AND JACKSON STATE UNIVERSITY:
          MARIA BARYSZ
     UNIVERSITY OF COPENHAGEN: Jimmy Kromann, CASPER STEINMANN
     TOKYO INSTITUTE OF TECHNOLOGY: HIROYA NAKATA
     NAGOYA UNIVERSITY: YOSHIO NISHIMOTO, STEPHAN IRLE
     MOSCOW STATE UNIVERSITY: VLADIMIR MIRONOV

 EXECUTION OF GAMESS BEGUN Fri Dec 13 16:16:21 2019

            ECHO OF THE FIRST FEW INPUT CARDS -
 INPUT CARD> $CONTRL SCFTYP=UHF RUNTYP=ENERGY COORD=CART UNITS=ANGS MULT=1 $END             
 INPUT CARD> $SYSTEM MWORDS=200 $END                                                        
 INPUT CARD> $DFT METHOD=GRID DFTTYP=B3LYP $END                                             
 INPUT CARD> $BASIS EXTFIL=.TRUE. GBASIS=6311GDS $END                                       
 INPUT CARD> $GUESS GUESS=HUCKEL $END                                                       
 INPUT CARD> $DATA                                                                          
 INPUT CARD>FLUORINE                                                                        
 INPUT CARD>C1                                                                              
 INPUT CARD>F   9.0   0.0000   0.0000   0.0000                                              
 INPUT CARD>F   9.0   0.0000   0.0000   1.4119                                              
 INPUT CARD> $END                                                                           
 INPUT CARD>~                                                                               
  200000000 WORDS OF MEMORY AVAILABLE


                    * * * WARNING * * *
 OLD KEYWORD COORD=CART SELECTED, AUTOMATICALLY CHANGED TO COORD=PRINAXIS.
 YOUR MOLECULE'S COORDINATES WILL BE CHANGED TO PRINCIPAL AXES BY
   A) TRANSLATION TO THE CENTER OF MASS, THEN
   B) ROTATION TO HAVE A DIAGONAL MOMENT OF INERTIA TENSOR.

 HOWEVER, NOTHING ELSE IN YOUR INPUT WILL BE ROTATED IN THE SAME WAY,
 SO IF YOU HAVE A $VEC, $VIB, $GRAD, $HESS, EFP PARTICLE COORDINATES,
 OR ANYTHING ELSE THAT DEPENDS ON THE INITIAL ORIENTATION, THAT DATA
 WILL NOT BE USED CORRECTLY IN THIS RUN.

 THE PURPOSE OF COORD=PRINAXIS IS TO BE USED ONCE, ONLY AT THE VERY
 BEGINNING OF A SERIES OF COMPUTATIONS, PERHAPS TO FIND THE SYMMETRY
 UNIQUE ATOMS FROM AN ARBITRARY INITIAL ORIENTATION.

 AFTER THE FIRST RUN, YOU SHOULD USE ONLY COORD=UNIQUE, TO ENSURE THAT
 THE COORDINATES WHICH YOU READ IN ARE THE COORDINATES THAT ARE USED.


     $BASIS REQUESTS READING THE "6311GDS " BASIS SET FROM AN EXTERNAL FILE


     RUN TITLE
     ---------
 FLUORINE                                                                        

 THE POINT GROUP OF THE MOLECULE IS C1      
 THE ORDER OF THE PRINCIPAL AXIS IS     0

 THE MOMENTS OF INERTIA ARE (AMU-ANGSTROM**2)
 IXX=    18.936   IYY=    18.936   IZZ=     0.000

 THE EXTERNAL BASIS SET FILE BEING READ IS
     "/home/akroy/gamess/EXTFILE.txt"

 ATOM      ATOMIC                      COORDINATES (BOHR)
           CHARGE         X                   Y                   Z
 F           9.0     0.0000000000        0.0000000000       -1.3340520610
 F           9.0     0.0000000000        0.0000000000        1.3340520610

          INTERNUCLEAR DISTANCES (ANGS.)
          ------------------------------

                1 F          2 F     

   1 F       0.0000000    1.4119000 *
   2 F       1.4119000 *  0.0000000  

  * ... LESS THAN  3.000


     ATOMIC BASIS SET
     ----------------
 THE CONTRACTED PRIMITIVE FUNCTIONS HAVE BEEN UNNORMALIZED
 THE CONTRACTED BASIS FUNCTIONS ARE NOW NORMALIZED TO UNITY

  SHELL TYPE  PRIMITIVE        EXPONENT          CONTRACTION COEFFICIENT(S)

 F         

      1   S       1         11427.1000000    0.001800930156
      1   S       2          1722.3500000    0.013741901192
      1   S       3           395.7460000    0.068133405910
      1   S       4           115.1390000    0.233325020240
      1   S       5            33.6026000    0.589086051102
      1   S       6             4.9190100    0.299505025981

      2   L       7            55.4441000    0.114536015543    0.035460887379
      2   L       8            12.6323000    0.920512124917    0.237450915490
      2   L       9             3.7175600   -0.003378040458    0.820457707996

      3   L      10             1.1654500    1.000000000000    1.000000000000

      4   L      11             0.3218920    1.000000000000    1.000000000000

      5   L      12             0.1076000    1.000000000000    1.000000000000

      6   D      13             1.7500000    1.000000000000

 F         

      7   S      14         11427.1000000    0.001800930156
      7   S      15          1722.3500000    0.013741901192
      7   S      16           395.7460000    0.068133405910
      7   S      17           115.1390000    0.233325020240
      7   S      18            33.6026000    0.589086051102
      7   S      19             4.9190100    0.299505025981

      8   L      20            55.4441000    0.114536015543    0.035460887379
      8   L      21            12.6323000    0.920512124917    0.237450915490
      8   L      22             3.7175600   -0.003378040458    0.820457707996

      9   L      23             1.1654500    1.000000000000    1.000000000000

     10   L      24             0.3218920    1.000000000000    1.000000000000

     11   L      25             0.1076000    1.000000000000    1.000000000000

     12   D      26             1.7500000    1.000000000000

 TOTAL NUMBER OF BASIS SET SHELLS             =   12
 NUMBER OF CARTESIAN GAUSSIAN BASIS FUNCTIONS =   46
 NUMBER OF ELECTRONS                          =   18
 CHARGE OF MOLECULE                           =    0
 SPIN MULTIPLICITY                            =    1
 NUMBER OF OCCUPIED ORBITALS (ALPHA)          =    9
 NUMBER OF OCCUPIED ORBITALS (BETA )          =    9
 TOTAL NUMBER OF ATOMS                        =    2
 THE NUCLEAR REPULSION ENERGY IS       30.3586353059

 THIS MOLECULE IS RECOGNIZED AS BEING LINEAR,
 ORBITAL LZ DEGENERACY TOLERANCE ETOLLZ= 1.00E-06

 *** WARNING ***
 KEYWORD DFTTYP IN $DFT IS NOW OBSOLETE.
 PLEASE ENTER DFTTYP IN THE $CONTRL GROUP IN FUTURE INPUT FILES.


     LEBEDEV GRID-BASED DFT OPTIONS
     ------------------------------
     DFTTYP=B3LYP   
     NRAD  =      96     NLEB  =     302
     NRAD0 =      24     NLEB0 =     110
     SWOFF =    5.00E-03 (PURE SCF -> DFT)
     SWITCH=    3.00E-04 (COARSE -> TIGHT GRID)
     THRESH=    0.00E+00 GTHRE=    1.00E+00

 GRIMME'S EMPIRICAL DISPERSION CORRECTION= F

     $CONTRL OPTIONS
     ---------------
 SCFTYP=UHF          RUNTYP=ENERGY       EXETYP=RUN     
 MPLEVL=       0     CITYP =NONE         CCTYP =NONE         VBTYP =NONE    
 DFTTYP=B3LYP        TDDFT =NONE    
 MULT  =       1     ICHARG=       0     NZVAR =       0     COORD =PRINAXIS
 PP    =NONE         RELWFN=NONE         LOCAL =NONE         NUMGRD=       F
 ISPHER=      -1     NOSYM =       0     MAXIT =      30     UNITS =ANGS    
 PLTORB=       F     MOLPLT=       F     AIMPAC=       F     FRIEND=        
 NPRINT=       7     IREST =       0     GEOM  =INPUT   
 NORMF =       0     NORMP =       0     ITOL  =      20     ICUT  =       9
 INTTYP=BEST         GRDTYP=BEST         QMTTOL= 1.0E-06

     $SYSTEM OPTIONS
     ---------------
  REPLICATED MEMORY=   200000000 WORDS (ON EVERY NODE).
 DISTRIBUTED MEMDDI=           0 MILLION WORDS IN AGGREGATE,
 MEMDDI DISTRIBUTED OVER   1 PROCESSORS IS           0 WORDS/PROCESSOR.
 TOTAL MEMORY REQUESTED ON EACH PROCESSOR=   200000000 WORDS.
 TIMLIM=      525600.00 MINUTES, OR     365.0 DAYS.
 PARALL= F  BALTYP=  DLB     KDIAG=    0  COREFL= F
 MXSEQ2=     300 MXSEQ3=     150  mem10=         0

          ----------------
          PROPERTIES INPUT
          ----------------

     MOMENTS            FIELD           POTENTIAL          DENSITY
 IEMOM =       1   IEFLD =       0   IEPOT =       0   IEDEN =       0
 WHERE =COMASS     WHERE =NUCLEI     WHERE =NUCLEI     WHERE =NUCLEI  
 OUTPUT=BOTH       OUTPUT=BOTH       OUTPUT=BOTH       OUTPUT=BOTH    
 IEMINT=       0   IEFINT=       0                     IEDINT=       0
                                                       MORB  =       0
          EXTRAPOLATION IN EFFECT
          DIIS IN EFFECT
          DIIS or SOSCF will be reset if energy rises
 ORBITAL PRINTING OPTION: NPREO=     1    46     2     1

     -------------------------------
     INTEGRAL TRANSFORMATION OPTIONS
     -------------------------------
     NWORD  =            0
     CUTOFF = 1.0E-09     MPTRAN =       0
     DIRTRF =       F     AOINTS =DUP     

          ----------------------
          INTEGRAL INPUT OPTIONS
          ----------------------
 NOPK  =       1 NORDER=       0 SCHWRZ=       F

     ------------------------------------------
     THE POINT GROUP IS C1 , NAXIS= 0, ORDER= 1
     ------------------------------------------

     DIMENSIONS OF THE SYMMETRY SUBSPACES ARE
 A   =   46

 ..... DONE SETTING UP THE RUN .....
 STEP CPU TIME =     0.00 TOTAL CPU TIME =          0.0 (      0.0 MIN)
 TOTAL WALL CLOCK TIME=          0.0 SECONDS, CPU UTILIZATION IS     0.00%

          ********************
          1 ELECTRON INTEGRALS
          ********************
 ...... END OF ONE-ELECTRON INTEGRALS ......
 STEP CPU TIME =     0.00 TOTAL CPU TIME =          0.0 (      0.0 MIN)
 TOTAL WALL CLOCK TIME=          0.0 SECONDS, CPU UTILIZATION IS     0.00%

          -------------
          GUESS OPTIONS
          -------------
          GUESS =HUCKEL            NORB  =       0          NORDER=       0
          MIX   =       F          PRTMO =       F          PUNMO =       F
          TOLZ  = 1.0E-08          TOLE  = 1.0E-05
          SYMDEN=       F          PURIFY=       F

 INITIAL GUESS ORBITALS GENERATED BY HUCKEL   ROUTINE.
 HUCKEL GUESS REQUIRES     17602 WORDS.

 SYMMETRIES FOR INITIAL GUESS ORBITALS FOLLOW.  ALPHA SET(S).
     9 ORBITALS ARE OCCUPIED (    2 CORE ORBITALS).
     3=A        4=A        5=A        6=A        7=A        8=A        9=A   
    10=A       11=A       12=A       13=A       14=A       15=A       16=A   
    17=A       18=A       19=A   

 SYMMETRIES FOR INITIAL GUESS ORBITALS FOLLOW.   BETA SET(S).
     9 ORBITALS ARE OCCUPIED (    2 CORE ORBITALS).
     3=A        4=A        5=A        6=A        7=A        8=A        9=A   
    10=A       11=A       12=A       13=A       14=A       15=A       16=A   
    17=A       18=A       19=A   
 ...... END OF INITIAL ORBITAL SELECTION ......
 STEP CPU TIME =     0.00 TOTAL CPU TIME =          0.0 (      0.0 MIN)
 TOTAL WALL CLOCK TIME=          0.0 SECONDS, CPU UTILIZATION IS     0.00%

                    ----------------------
                    AO INTEGRAL TECHNOLOGY
                    ----------------------
     S,P,L SHELL ROTATED AXIS INTEGRALS, REPROGRAMMED BY
        KAZUYA ISHIMURA (IMS) AND JOSE SIERRA (SYNSTAR).
     S,P,D,L SHELL ROTATED AXIS INTEGRALS PROGRAMMED BY
        KAZUYA ISHIMURA (INSTITUTE FOR MOLECULAR SCIENCE).
     S,P,D,F,G SHELL TO TOTAL QUARTET ANGULAR MOMENTUM SUM 5,
        ERIC PROGRAM BY GRAHAM FLETCHER (ELORET AND NASA ADVANCED
        SUPERCOMPUTING DIVISION, AMES RESEARCH CENTER).
     S,P,D,F,G,L SHELL GENERAL RYS QUADRATURE PROGRAMMED BY
        MICHEL DUPUIS (PACIFIC NORTHWEST NATIONAL LABORATORY).

          --------------------
          2 ELECTRON INTEGRALS
          --------------------

 THE -PK- OPTION IS OFF, THE INTEGRALS ARE NOT IN SUPERMATRIX FORM.
 STORING   15000 INTEGRALS/RECORD ON DISK, USING 12 BYTES/INTEGRAL.
 TWO ELECTRON INTEGRAL EVALUATION REQUIRES   90474 WORDS OF MEMORY.
 II,JST,KST,LST =  1  1  1  1 NREC =         1 INTLOC =    1
 II,JST,KST,LST =  2  1  1  1 NREC =         1 INTLOC =    2
 II,JST,KST,LST =  3  1  1  1 NREC =         1 INTLOC =   34
 II,JST,KST,LST =  4  1  1  1 NREC =         1 INTLOC =  214
 II,JST,KST,LST =  5  1  1  1 NREC =         1 INTLOC =  776
 II,JST,KST,LST =  6  1  1  1 NREC =         1 INTLOC = 2074
 II,JST,KST,LST =  7  1  1  1 NREC =         1 INTLOC = 5929
 II,JST,KST,LST =  8  1  1  1 NREC =         1 INTLOC = 7841
 II,JST,KST,LST =  9  1  1  1 NREC =         2 INTLOC = 2324
 II,JST,KST,LST = 10  1  1  1 NREC =         3 INTLOC = 3049
 II,JST,KST,LST = 11  1  1  1 NREC =         4 INTLOC =10781
 II,JST,KST,LST = 12  1  1  1 NREC =         6 INTLOC =11928
 TOTAL NUMBER OF NONZERO TWO-ELECTRON INTEGRALS =              149865
         10 INTEGRAL RECORDS WERE STORED ON DISK FILE  8.
  ...... END OF TWO-ELECTRON INTEGRALS .....
 STEP CPU TIME =     0.03 TOTAL CPU TIME =          0.0 (      0.0 MIN)
 TOTAL WALL CLOCK TIME=          0.0 SECONDS, CPU UTILIZATION IS    75.00%

          ---------------------------
              U-B3LYP SCF CALCULATION
          ---------------------------

     NUCLEAR ENERGY =        30.3586353059
     MAXIT = 30     NPUNCH=  2     MULT=  1
     EXTRAP=T  DAMP=F  SHIFT=F  RSTRCT=F  DIIS=T  SOSCF=F
         DENSITY MATRIX CONVERGENCE THRESHOLD=  1.00E-05
     COARSE -> FINE DFT GRID SWITCH THRESHOLD=  3.00E-04 (SWITCH IN $DFT)
                   HF -> DFT SWITCH THRESHOLD=  5.00E-03 (SWOFF IN $DFT)
     MEMORY REQUIRED FOR UHF/ROHF ITERS=    158150 WORDS.

 DFT CODE IS SWITCHING FROM THE FINE GRID NRAD= 96,  NLEB=  302
                      TO THE COARSE GRID NRAD0= 24, NLEB0=  110

     EXCHANGE FUNCTIONAL   =B88&HFX   
     CORRELATION FUNCTIONAL=LYP88&VWN5
     DFT THRESHOLD         =.690E-07
     GRID CHANGE THRESHOLD =.300E-03
 FOR AN EULER-MACLAURIN QUADRATURE USING  96 RADIAL POINTS:
 SMALLEST GAUSSIAN PRIMITIVE EXPONENT=        0.1076000000 OF TYPE -P-
 ON ATOM NUMBER   1 HAS RADIAL NORMALIZATION=  1.000000
  LARGEST GAUSSIAN PRIMITIVE EXPONENT=    11427.1000000000 OF TYPE -S-
 ON ATOM NUMBER   1 HAS RADIAL NORMALIZATION=  1.000000
 DFT IS SWITCHED OFF, PERFORMING PURE SCF UNTIL SWOFF THRESHOLD IS REACHED.

 ITER EX      TOTAL ENERGY        E CHANGE  DENSITY CHANGE    DIIS ERROR
   1  0     -198.3455376177  -198.3455376177   0.107236839   2.532958569
          * * *   INITIATING DIIS PROCEDURE   * * *
   2  1     -198.7190523788    -0.3735147611   0.022875853   0.086029144
   3  2     -198.7308579324    -0.0118055536   0.013901931   0.037988352
   4  3     -198.7320022034    -0.0011442710   0.002105977   0.007070833
 CONVERGED TO SWOFF, SO DFT CALCULATION IS NOW SWITCHED ON.
          * * *   INITIATING DIIS PROCEDURE   * * *
   5  4     -199.4877052200    -0.7557030166   0.026809789   0.229233622
   6  5     -199.5055528962    -0.0178476762   0.015476151   0.016508536
   7  6     -199.5056250021    -0.0000721059   0.007517544   0.014539568
   8  7     -199.5059001643    -0.0002751622   0.000882971   0.002100069
   9  8     -199.5059056559    -0.0000054916   0.000022217   0.000116138
 DFT CODE IS SWITCHING BACK TO THE FINE GRID
          * * *   INITIATING DIIS PROCEDURE   * * *
  10  9     -199.5053140672     0.0005915887   0.001008898   0.001070752
  11 10     -199.5053171203    -0.0000030531   0.000081376   0.000314976
  12 11     -199.5053171693    -0.0000000490   0.000062544   0.000130645
  13 12     -199.5053171901    -0.0000000209   0.000020458   0.000035180
  14 13     -199.5053171915    -0.0000000013   0.000004757   0.000020697
  15 14     -199.5053171917    -0.0000000003   0.000001325   0.000004762

          -----------------
          DENSITY CONVERGED
          -----------------
     TIME TO FORM FOCK OPERATORS=       1.4 SECONDS (       0.1 SEC/ITER)
     TIME TO SOLVE SCF EQUATIONS=       0.0 SECONDS (       0.0 SEC/ITER)

 FINAL U-B3LYP ENERGY IS     -199.5053171917 AFTER  15 ITERATIONS
 DFT EXCHANGE + CORRELATION ENERGY =       -16.7071959516
 TOTAL ELECTRON NUMBER             =        17.9999998621

          --------------------
          SPIN SZ   =    0.000
          S-SQUARED =   -0.000
          --------------------

 LZ VALUE ANALYSIS FOR THE MOS
 ----------------------------------------
 MO     1 (    1) HAS LZ(WEIGHT)= 0.00(100.0%) 
 MO     2 (    2) HAS LZ(WEIGHT)= 0.00(100.0%) 
 MO     3 (    3) HAS LZ(WEIGHT)= 0.00(100.0%) 
 MO     4 (    4) HAS LZ(WEIGHT)= 0.00(100.0%) 
 MO     5 (    5) HAS LZ(WEIGHT)= 0.00(100.0%) 
 MO     6 (    6) HAS LZ(WEIGHT)=-1.00( 50.0%)  1.00( 50.0%) 
 MO     7 (    6) HAS LZ(WEIGHT)=-1.00( 50.0%)  1.00( 50.0%) 
 MO     8 (    7) HAS LZ(WEIGHT)=-1.00( 50.0%)  1.00( 50.0%) 
 MO     9 (    7) HAS LZ(WEIGHT)=-1.00( 50.0%)  1.00( 50.0%) 
 MO    10 (    8) HAS LZ(WEIGHT)= 0.00(100.0%) 
 MO    11 (    9) HAS LZ(WEIGHT)= 0.00(100.0%) 
 MO    12 (   10) HAS LZ(WEIGHT)= 0.00(100.0%) 
 MO    13 (   11) HAS LZ(WEIGHT)=-1.00( 50.0%)  1.00( 50.0%) 
 MO    14 (   11) HAS LZ(WEIGHT)=-1.00( 50.0%)  1.00( 50.0%) 
 MO    15 (   12) HAS LZ(WEIGHT)= 0.00(100.0%) 
 MO    16 (   13) HAS LZ(WEIGHT)=-1.00( 50.0%)  1.00( 50.0%) 
 MO    17 (   13) HAS LZ(WEIGHT)=-1.00( 50.0%)  1.00( 50.0%) 
 MO    18 (   14) HAS LZ(WEIGHT)= 0.00(100.0%) 
 MO    19 (   15) HAS LZ(WEIGHT)=-1.00( 50.0%)  1.00( 50.0%) 
 MO    20 (   15) HAS LZ(WEIGHT)=-1.00( 50.0%)  1.00( 50.0%) 
 MO    21 (   16) HAS LZ(WEIGHT)= 0.00(100.0%) 
 MO    22 (   17) HAS LZ(WEIGHT)=-1.00( 50.0%)  1.00( 50.0%) 
 MO    23 (   17) HAS LZ(WEIGHT)=-1.00( 50.0%)  1.00( 50.0%) 
 MO    24 (   18) HAS LZ(WEIGHT)= 0.00(100.0%) 
 MO    25 (   19) HAS LZ(WEIGHT)= 0.00(100.0%) 
 MO    26 (   20) HAS LZ(WEIGHT)= 0.00(100.0%) 
 MO    27 (   21) HAS LZ(WEIGHT)= 0.00(100.0%) 
 MO    28 (   22) HAS LZ(WEIGHT)=-1.00( 50.0%)  1.00( 50.0%) 
 MO    29 (   22) HAS LZ(WEIGHT)=-1.00( 50.0%)  1.00( 50.0%) 
 MO    30 (   23) HAS LZ(WEIGHT)=-2.00( 50.0%)  2.00( 50.0%) 
 MO    31 (   23) HAS LZ(WEIGHT)=-2.00( 50.0%)  2.00( 50.0%) 
 MO    32 (   24) HAS LZ(WEIGHT)=-2.00( 50.0%)  2.00( 50.0%) 
 MO    33 (   24) HAS LZ(WEIGHT)=-2.00( 50.0%)  2.00( 50.0%) 
 MO    34 (   25) HAS LZ(WEIGHT)=-1.00( 50.0%)  1.00( 50.0%) 
 MO    35 (   25) HAS LZ(WEIGHT)=-1.00( 50.0%)  1.00( 50.0%) 
 MO    36 (   26) HAS LZ(WEIGHT)= 0.00(100.0%) 
 MO    37 (   27) HAS LZ(WEIGHT)= 0.00(100.0%) 
 MO    38 (   28) HAS LZ(WEIGHT)=-1.00( 50.0%)  1.00( 50.0%) 
 MO    39 (   28) HAS LZ(WEIGHT)=-1.00( 50.0%)  1.00( 50.0%) 
 MO    40 (   29) HAS LZ(WEIGHT)=-1.00( 50.0%)  1.00( 50.0%) 
 MO    41 (   29) HAS LZ(WEIGHT)=-1.00( 50.0%)  1.00( 50.0%) 
 MO    42 (   30) HAS LZ(WEIGHT)= 0.00(100.0%) 
 MO    43 (   31) HAS LZ(WEIGHT)= 0.00(100.0%) 
 MO    44 (   32) HAS LZ(WEIGHT)= 0.00(100.0%) 
 MO    45 (   33) HAS LZ(WEIGHT)= 0.00(100.0%) 
 MO    46 (   34) HAS LZ(WEIGHT)= 0.00(100.0%) 

  ----- ALPHA SET ----- 

          ------------
          EIGENVECTORS
          ------------

                      1          2          3          4          5
                  -24.7998   -24.7998    -1.3634    -1.1209    -0.6152
                     A          A          A          A          A   
    1  F  1  S    0.389977  -0.385090  -0.087186  -0.095635  -0.023445
    2  F  1  S    0.333553  -0.329381  -0.141801  -0.157742  -0.039916
    3  F  1  X    0.000000  -0.000000  -0.000000  -0.000000  -0.000000
    4  F  1  Y    0.000000  -0.000000  -0.000000  -0.000000  -0.000000
    5  F  1  Z    0.000655  -0.000615   0.041062  -0.023098  -0.216376
    6  F  1  S    0.014275  -0.014016   0.423786   0.482359   0.130368
    7  F  1  X    0.000000  -0.000000  -0.000000  -0.000000  -0.000000
    8  F  1  Y    0.000000  -0.000000  -0.000000  -0.000000  -0.000000
    9  F  1  Z   -0.000285   0.000238   0.071999  -0.031288  -0.325527
   10  F  1  S   -0.000000  -0.000326   0.305304   0.399893   0.115403
   11  F  1  X    0.000000  -0.000000  -0.000000  -0.000000  -0.000000
   12  F  1  Y    0.000000  -0.000000  -0.000000  -0.000000  -0.000000
   13  F  1  Z    0.000165  -0.000337   0.036445  -0.002951  -0.238571
   14  F  1  S   -0.000053   0.000846  -0.013183  -0.091830   0.032246
   15  F  1  X    0.000000  -0.000000  -0.000000  -0.000000  -0.000000
   16  F  1  Y    0.000000  -0.000000  -0.000000  -0.000000  -0.000000
   17  F  1  Z   -0.000095   0.000403  -0.012995  -0.041233  -0.002184
   18  F  1 XX   -0.003735   0.003700  -0.009455  -0.005455   0.005103
   19  F  1 YY   -0.003735   0.003700  -0.009455  -0.005455   0.005103
   20  F  1 ZZ   -0.003735   0.003629   0.013603  -0.005657  -0.021074
   21  F  1 XY    0.000000  -0.000000  -0.000000  -0.000000  -0.000000
   22  F  1 XZ    0.000000  -0.000000  -0.000000  -0.000000  -0.000000
   23  F  1 YZ    0.000000  -0.000000  -0.000000  -0.000000  -0.000000
   24  F  2  S    0.385089   0.389978  -0.087186   0.095635  -0.023445
   25  F  2  S    0.329372   0.333562  -0.141801   0.157742  -0.039916
   26  F  2  X    0.000000  -0.000000  -0.000000  -0.000000  -0.000000
   27  F  2  Y    0.000000  -0.000000  -0.000000  -0.000000  -0.000000
   28  F  2  Z   -0.000647  -0.000623  -0.041062  -0.023098   0.216376
   29  F  2  S    0.014097   0.014195   0.423788  -0.482358   0.130368
   30  F  2  X    0.000000  -0.000000  -0.000000  -0.000000  -0.000000
   31  F  2  Y    0.000000  -0.000000  -0.000000  -0.000000  -0.000000
   32  F  2  Z    0.000282   0.000241  -0.071999  -0.031288   0.325527
   33  F  2  S   -0.000003   0.000326   0.305299  -0.399895   0.115412
   34  F  2  X    0.000000  -0.000000  -0.000000  -0.000000  -0.000000
   35  F  2  Y    0.000000  -0.000000  -0.000000  -0.000000  -0.000000
   36  F  2  Z   -0.000161  -0.000339  -0.036445  -0.002951   0.238570
   37  F  2  S   -0.000047  -0.000846  -0.013136   0.091832   0.032195
   38  F  2  X    0.000000  -0.000000  -0.000000  -0.000000  -0.000000
   39  F  2  Y    0.000000  -0.000000  -0.000000  -0.000000  -0.000000
   40  F  2  Z    0.000092   0.000405   0.012973  -0.041233   0.002207
   41  F  2 XX   -0.003688  -0.003747  -0.009455   0.005455   0.005102
   42  F  2 YY   -0.003688  -0.003747  -0.009455   0.005455   0.005102
   43  F  2 ZZ   -0.003689  -0.003676   0.013603   0.005657  -0.021074
   44  F  2 XY    0.000000  -0.000000  -0.000000  -0.000000  -0.000000
   45  F  2 XZ    0.000000  -0.000000  -0.000000  -0.000000  -0.000000
   46  F  2 YZ    0.000000  -0.000000  -0.000000  -0.000000  -0.000000

                      6          7          8          9         10
                   -0.5521    -0.5521    -0.4246    -0.4246    -0.1719
                     A          A          A          A          A   
    1  F  1  S    0.000000  -0.000000   0.000000  -0.000000  -0.026938
    2  F  1  S    0.000000  -0.000000   0.000000  -0.000000  -0.045975
    3  F  1  X   -0.000000   0.223029  -0.000000  -0.246796   0.000000
    4  F  1  Y    0.223029   0.000000  -0.246796   0.000000   0.000000
    5  F  1  Z    0.000000  -0.000000   0.000000  -0.000000   0.256253
    6  F  1  S    0.000000  -0.000000   0.000000  -0.000000   0.156205
    7  F  1  X   -0.000000   0.318398  -0.000000  -0.351918   0.000000
    8  F  1  Y    0.318398   0.000000  -0.351918   0.000000   0.000000
    9  F  1  Z    0.000000  -0.000000   0.000000  -0.000000   0.370017
   10  F  1  S    0.000000  -0.000000   0.000000  -0.000000   0.243784
   11  F  1  X   -0.000000   0.263202  -0.000000  -0.302620   0.000000
   12  F  1  Y    0.263202   0.000000  -0.302620   0.000000   0.000000
   13  F  1  Z    0.000000  -0.000000   0.000000  -0.000000   0.394382
   14  F  1  S    0.000000  -0.000000   0.000000  -0.000000   0.202385
   15  F  1  X   -0.000000   0.026869  -0.000000  -0.050957   0.000000
   16  F  1  Y    0.026869   0.000000  -0.050957   0.000000   0.000000
   17  F  1  Z    0.000000  -0.000000   0.000000  -0.000000   0.203583
   18  F  1 XX    0.000000  -0.000000   0.000000  -0.000000   0.001147
   19  F  1 YY    0.000000  -0.000000   0.000000  -0.000000   0.001147
   20  F  1 ZZ    0.000000  -0.000000   0.000000  -0.000000  -0.011568
   21  F  1 XY    0.000000  -0.000000   0.000000  -0.000000   0.000000
   22  F  1 XZ   -0.000000   0.011736   0.000000  -0.000030   0.000000
   23  F  1 YZ    0.011736   0.000000  -0.000030  -0.000000   0.000000
   24  F  2  S    0.000000  -0.000000   0.000000  -0.000000   0.026938
   25  F  2  S    0.000000  -0.000000   0.000000  -0.000000   0.045975
   26  F  2  X   -0.000000   0.223029   0.000000   0.246796   0.000000
   27  F  2  Y    0.223029   0.000000   0.246796  -0.000000   0.000000
   28  F  2  Z    0.000000  -0.000000   0.000000  -0.000000   0.256252
   29  F  2  S    0.000000  -0.000000   0.000000  -0.000000  -0.156203
   30  F  2  X   -0.000000   0.318398   0.000000   0.351919   0.000000
   31  F  2  Y    0.318398   0.000000   0.351919  -0.000000   0.000000
   32  F  2  Z    0.000000  -0.000000   0.000000  -0.000000   0.370017
   33  F  2  S    0.000000  -0.000000   0.000000  -0.000000  -0.243782
   34  F  2  X   -0.000000   0.263201   0.000000   0.302621   0.000000
   35  F  2  Y    0.263201   0.000000   0.302621  -0.000000   0.000000
   36  F  2  Z    0.000000  -0.000000   0.000000  -0.000000   0.394381
   37  F  2  S    0.000000  -0.000000   0.000000  -0.000000  -0.202386
   38  F  2  X   -0.000000   0.026870   0.000000   0.050957   0.000000
   39  F  2  Y    0.026870   0.000000   0.050957  -0.000000   0.000000
   40  F  2  Z    0.000000  -0.000000   0.000000  -0.000000   0.203584
   41  F  2 XX    0.000000  -0.000000   0.000000  -0.000000  -0.001148
   42  F  2 YY    0.000000  -0.000000   0.000000  -0.000000  -0.001148
   43  F  2 ZZ    0.000000  -0.000000   0.000000  -0.000000   0.011567
   44  F  2 XY    0.000000  -0.000000   0.000000  -0.000000   0.000000
   45  F  2 XZ    0.000000  -0.011736   0.000000  -0.000030   0.000000
   46  F  2 YZ   -0.011736  -0.000000  -0.000030  -0.000000   0.000000

                     11         12         13         14         15
                    0.1083     0.1584     0.1798     0.1798     0.2549
                     A          A          A          A          A   
    1  F  1  S    0.027893  -0.012122  -0.000000  -0.000000  -0.007593
    2  F  1  S    0.051094  -0.021251  -0.000000  -0.000000  -0.014902
    3  F  1  X   -0.000000  -0.000000   0.000000  -0.094997   0.000000
    4  F  1  Y   -0.000000  -0.000000  -0.094997  -0.000000   0.000000
    5  F  1  Z    0.034004  -0.100202  -0.000000  -0.000000   0.054750
    6  F  1  S   -0.138414   0.074531  -0.000000  -0.000000   0.027459
    7  F  1  X   -0.000000  -0.000000   0.000000  -0.099504   0.000000
    8  F  1  Y   -0.000000  -0.000000  -0.099504  -0.000000   0.000000
    9  F  1  Z    0.029937  -0.113564  -0.000000  -0.000000   0.048716
   10  F  1  S   -0.671181   0.143909  -0.000000  -0.000000   0.401890
   11  F  1  X   -0.000000  -0.000000   0.000000  -0.326483   0.000000
   12  F  1  Y   -0.000000  -0.000000  -0.326484  -0.000000   0.000000
   13  F  1  Z    0.103436  -0.360815  -0.000000  -0.000000   0.270419
   14  F  1  S    0.974439   1.561104  -0.000000  -0.000000  -0.065839
   15  F  1  X   -0.000000  -0.000000  -0.000000   0.702198   0.000000
   16  F  1  Y   -0.000000  -0.000000   0.702199   0.000000   0.000000
   17  F  1  Z   -0.263953   1.617666  -0.000000  -0.000000  -1.113459
   18  F  1 XX    0.017475  -0.001906  -0.000000  -0.000000  -0.015808
   19  F  1 YY    0.017475  -0.001906  -0.000000  -0.000000  -0.015808
   20  F  1 ZZ    0.009727  -0.003374  -0.000000  -0.000000   0.008316
   21  F  1 XY   -0.000000  -0.000000  -0.000000  -0.000000   0.000000
   22  F  1 XZ   -0.000000  -0.000000   0.000000  -0.003323   0.000000
   23  F  1 YZ   -0.000000  -0.000000  -0.003323  -0.000000   0.000000
   24  F  2  S    0.027893   0.012123  -0.000000  -0.000000  -0.007594
   25  F  2  S    0.051095   0.021250  -0.000000  -0.000000  -0.014905
   26  F  2  X   -0.000000  -0.000000   0.000000  -0.094997   0.000000
   27  F  2  Y   -0.000000  -0.000000  -0.094997  -0.000000   0.000000
   28  F  2  Z   -0.034001  -0.100205  -0.000000  -0.000000  -0.054747
   29  F  2  S   -0.138409  -0.074531  -0.000000  -0.000000   0.027461
   30  F  2  X   -0.000000  -0.000000   0.000000  -0.099503   0.000000
   31  F  2  Y   -0.000000  -0.000000  -0.099503  -0.000000   0.000000
   32  F  2  Z   -0.029933  -0.113568  -0.000000  -0.000000  -0.048713
   33  F  2  S   -0.671245  -0.143907  -0.000000  -0.000000   0.401995
   34  F  2  X   -0.000000  -0.000000   0.000000  -0.326485   0.000000
   35  F  2  Y   -0.000000  -0.000000  -0.326484  -0.000000   0.000000
   36  F  2  Z   -0.103424  -0.360824  -0.000000  -0.000000  -0.270413
   37  F  2  S    0.974927  -1.561084  -0.000000  -0.000000  -0.066542
   38  F  2  X   -0.000000  -0.000000  -0.000000   0.702200   0.000000
   39  F  2  Y   -0.000000  -0.000000   0.702199   0.000000   0.000000
   40  F  2  Z    0.263716   1.617704  -0.000000  -0.000000   1.113742
   41  F  2 XX    0.017478   0.001903  -0.000000  -0.000000  -0.015812
   42  F  2 YY    0.017478   0.001903  -0.000000  -0.000000  -0.015812
   43  F  2 ZZ    0.009730   0.003370  -0.000000  -0.000000   0.008312
   44  F  2 XY   -0.000000  -0.000000  -0.000000  -0.000000   0.000000
   45  F  2 XZ   -0.000000  -0.000000  -0.000000   0.003323   0.000000
   46  F  2 YZ   -0.000000  -0.000000   0.003323   0.000000   0.000000

                     16         17         18         19         20
                    0.2587     0.2587     0.4168     1.1610     1.1610
                     A          A          A          A          A   
    1  F  1  S   -0.000000   0.000000   0.018799   0.000000  -0.000000
    2  F  1  S   -0.000000   0.000000   0.037513   0.000000  -0.000000
    3  F  1  X   -0.000000  -0.078564   0.000000   0.000000  -0.200367
    4  F  1  Y    0.078564  -0.000000   0.000000  -0.200367  -0.000000
    5  F  1  Z   -0.000000   0.000000   0.005288   0.000000  -0.000000
    6  F  1  S   -0.000000   0.000000  -0.063304   0.000000  -0.000000
    7  F  1  X   -0.000000  -0.074535   0.000000   0.000000  -0.559186
    8  F  1  Y    0.074535  -0.000000   0.000000  -0.559186  -0.000000
    9  F  1  Z   -0.000000   0.000000   0.002722   0.000000  -0.000000
   10  F  1  S   -0.000000   0.000000  -1.036501   0.000000  -0.000000
   11  F  1  X   -0.000000  -0.324127   0.000000  -0.000000   1.045414
   12  F  1  Y    0.324127  -0.000000   0.000000   1.045416   0.000000
   13  F  1  Z   -0.000000   0.000000   0.037869   0.000000  -0.000000
   14  F  1  S   -0.000000   0.000000   9.269303   0.000000  -0.000000
   15  F  1  X    0.000000   1.486085   0.000000   0.000000  -0.478588
   16  F  1  Y   -1.486084   0.000000   0.000000  -0.478590  -0.000000
   17  F  1  Z   -0.000000   0.000000   4.100591   0.000000  -0.000000
   18  F  1 XX   -0.000000   0.000000   0.027065   0.000000  -0.000000
   19  F  1 YY   -0.000000   0.000000   0.027065   0.000000  -0.000000
   20  F  1 ZZ   -0.000000   0.000000   0.009880   0.000000  -0.000000
   21  F  1 XY   -0.000000   0.000000   0.000000   0.000000  -0.000000
   22  F  1 XZ   -0.000000  -0.007126   0.000000  -0.000000   0.018502
   23  F  1 YZ    0.007126  -0.000000   0.000000   0.018502   0.000000
   24  F  2  S   -0.000000   0.000000  -0.018797   0.000000  -0.000000
   25  F  2  S   -0.000000   0.000000  -0.037513   0.000000  -0.000000
   26  F  2  X    0.000000   0.078564   0.000000   0.000000  -0.200368
   27  F  2  Y   -0.078564   0.000000   0.000000  -0.200368  -0.000000
   28  F  2  Z   -0.000000   0.000000   0.005287   0.000000  -0.000000
   29  F  2  S   -0.000000   0.000000   0.063292   0.000000  -0.000000
   30  F  2  X    0.000000   0.074535   0.000000   0.000000  -0.559191
   31  F  2  Y   -0.074535   0.000000   0.000000  -0.559190  -0.000000
   32  F  2  Z   -0.000000   0.000000   0.002712   0.000000  -0.000000
   33  F  2  S   -0.000000   0.000000   1.036499   0.000000  -0.000000
   34  F  2  X    0.000000   0.324127   0.000000  -0.000000   1.045427
   35  F  2  Y   -0.324127   0.000000   0.000000   1.045425   0.000000
   36  F  2  Z   -0.000000   0.000000   0.037904   0.000000  -0.000000
   37  F  2  S   -0.000000   0.000000  -9.269280   0.000000  -0.000000
   38  F  2  X   -0.000000  -1.486084   0.000000   0.000000  -0.478597
   39  F  2  Y    1.486084  -0.000000   0.000000  -0.478596  -0.000000
   40  F  2  Z   -0.000000   0.000000   4.100509   0.000000  -0.000000
   41  F  2 XX   -0.000000   0.000000  -0.027075   0.000000  -0.000000
   42  F  2 YY   -0.000000   0.000000  -0.027075   0.000000  -0.000000
   43  F  2 ZZ   -0.000000   0.000000  -0.009901   0.000000  -0.000000
   44  F  2 XY   -0.000000   0.000000   0.000000   0.000000  -0.000000
   45  F  2 XZ   -0.000000  -0.007126   0.000000   0.000000  -0.018502
   46  F  2 YZ    0.007126  -0.000000   0.000000  -0.018502  -0.000000

                     21         22         23         24         25
                    1.1962     1.3003     1.3003     1.3093     1.5174
                     A          A          A          A          A   
    1  F  1  S   -0.022795   0.000000  -0.000000   0.044414   0.070129
    2  F  1  S   -0.037272   0.000000  -0.000000   0.063143   0.098181
    3  F  1  X    0.000000   0.000000  -0.178151  -0.000000  -0.000000
    4  F  1  Y    0.000000  -0.178150  -0.000000  -0.000000  -0.000000
    5  F  1  Z   -0.156052   0.000000  -0.000000   0.144152  -0.127747
    6  F  1  S    0.164434   0.000000  -0.000000  -0.567548  -0.887229
    7  F  1  X    0.000000   0.000000  -0.562159  -0.000000  -0.000000
    8  F  1  Y    0.000000  -0.562159  -0.000000  -0.000000  -0.000000
    9  F  1  Z   -0.510334   0.000000  -0.000000   0.503741  -0.411311
   10  F  1  S    0.372572   0.000000  -0.000000   1.143563   1.390635
   11  F  1  X    0.000000  -0.000000   1.363499  -0.000000  -0.000000
   12  F  1  Y    0.000000   1.363497   0.000000  -0.000000  -0.000000
   13  F  1  Z    1.825927   0.000000  -0.000000  -0.937638   0.603869
   14  F  1  S   -0.359261   0.000000  -0.000000  -0.565150  -0.481883
   15  F  1  X    0.000000   0.000000  -0.928156  -0.000000  -0.000000
   16  F  1  Y    0.000000  -0.928155  -0.000000  -0.000000  -0.000000
   17  F  1  Z   -0.785741   0.000000  -0.000000   0.511691  -0.463605
   18  F  1 XX    0.014798   0.000000  -0.000000  -0.079536  -0.086589
   19  F  1 YY    0.014798   0.000000  -0.000000  -0.079536  -0.086589
   20  F  1 ZZ   -0.004657   0.000000  -0.000000  -0.027131  -0.143206
   21  F  1 XY    0.000000   0.000000  -0.000000  -0.000000  -0.000000
   22  F  1 XZ    0.000000   0.000000  -0.028568  -0.000000  -0.000000
   23  F  1 YZ    0.000000  -0.028568  -0.000000  -0.000000  -0.000000
   24  F  2  S    0.022795   0.000000  -0.000000   0.044418   0.070135
   25  F  2  S    0.037272   0.000000  -0.000000   0.063147   0.098189
   26  F  2  X    0.000000  -0.000000   0.178148  -0.000000  -0.000000
   27  F  2  Y    0.000000   0.178149   0.000000  -0.000000  -0.000000
   28  F  2  Z   -0.156056   0.000000  -0.000000  -0.144148   0.127746
   29  F  2  S   -0.164436   0.000000  -0.000000  -0.567599  -0.887322
   30  F  2  X    0.000000  -0.000000   0.562155  -0.000000  -0.000000
   31  F  2  Y    0.000000   0.562155   0.000000  -0.000000  -0.000000
   32  F  2  Z   -0.510348   0.000000  -0.000000  -0.503728   0.411314
   33  F  2  S   -0.372563   0.000000  -0.000000   1.143688   1.390866
   34  F  2  X    0.000000   0.000000  -1.363489  -0.000000  -0.000000
   35  F  2  Y    0.000000  -1.363490  -0.000000  -0.000000  -0.000000
   36  F  2  Z    1.825950   0.000000  -0.000000   0.937556  -0.603934
   37  F  2  S    0.359256   0.000000  -0.000000  -0.565131  -0.482185
   38  F  2  X    0.000000  -0.000000   0.928151  -0.000000  -0.000000
   39  F  2  Y    0.000000   0.928151   0.000000  -0.000000  -0.000000
   40  F  2  Z   -0.785754   0.000000  -0.000000  -0.511700   0.463716
   41  F  2 XX   -0.014800   0.000000  -0.000000  -0.079543  -0.086599
   42  F  2 YY   -0.014800   0.000000  -0.000000  -0.079543  -0.086599
   43  F  2 ZZ    0.004656   0.000000  -0.000000  -0.027141  -0.143221
   44  F  2 XY    0.000000   0.000000  -0.000000  -0.000000  -0.000000
   45  F  2 XZ    0.000000   0.000000  -0.028569  -0.000000  -0.000000
   46  F  2 YZ    0.000000  -0.028569  -0.000000  -0.000000  -0.000000

                     26         27         28         29         30
                    1.7518     3.2745     3.5187     3.5187     3.6911
                     A          A          A          A          A   
    1  F  1  S   -0.070988   0.006487   0.000000   0.000000  -0.000000
    2  F  1  S   -0.093312   0.026911   0.000000   0.000000  -0.000000
    3  F  1  X    0.000000  -0.000000  -0.000000   0.005649  -0.000000
    4  F  1  Y    0.000000  -0.000000   0.005649   0.000000  -0.000000
    5  F  1  Z    0.008085  -0.155119   0.000000   0.000000  -0.000000
    6  F  1  S    1.165423  -0.049190   0.000000   0.000000  -0.000000
    7  F  1  X    0.000000  -0.000000  -0.000000   0.036839  -0.000000
    8  F  1  Y    0.000000  -0.000000   0.036839   0.000000  -0.000000
    9  F  1  Z    0.083076   0.103989   0.000000   0.000000  -0.000000
   10  F  1  S   -3.097952  -0.216476   0.000000   0.000000  -0.000000
   11  F  1  X    0.000000  -0.000000   0.000000  -0.118222  -0.000000
   12  F  1  Y    0.000000  -0.000000  -0.118222  -0.000000  -0.000000
   13  F  1  Z   -1.004261  -0.097993   0.000000   0.000000  -0.000000
   14  F  1  S    5.128495   0.089545   0.000000   0.000000  -0.000000
   15  F  1  X    0.000000  -0.000000  -0.000000   0.052188  -0.000000
   16  F  1  Y    0.000000  -0.000000   0.052188   0.000000  -0.000000
   17  F  1  Z    2.062511   0.137604   0.000000   0.000000  -0.000000
   18  F  1 XX    0.117286  -0.282628   0.000000   0.000000   0.000000
   19  F  1 YY    0.117286  -0.282628   0.000000   0.000000  -0.000000
   20  F  1 ZZ    0.202327   0.730217   0.000000   0.000000  -0.000000
   21  F  1 XY    0.000000  -0.000000   0.000000   0.000000   0.706415
   22  F  1 XZ    0.000000  -0.000000  -0.000000   0.701056  -0.000000
   23  F  1 YZ    0.000000  -0.000000   0.701056   0.000000  -0.000000
   24  F  2  S    0.070980   0.006488   0.000000   0.000000  -0.000000
   25  F  2  S    0.093298   0.026912   0.000000   0.000000  -0.000000
   26  F  2  X    0.000000  -0.000000  -0.000000   0.005649  -0.000000
   27  F  2  Y    0.000000  -0.000000   0.005649   0.000000  -0.000000
   28  F  2  Z    0.008081   0.155119   0.000000   0.000000  -0.000000
   29  F  2  S   -1.165318  -0.049202   0.000000   0.000000  -0.000000
   30  F  2  X    0.000000  -0.000000  -0.000000   0.036838  -0.000000
   31  F  2  Y    0.000000  -0.000000   0.036838   0.000000  -0.000000
   32  F  2  Z    0.083067  -0.103988   0.000000   0.000000  -0.000000
   33  F  2  S    3.097788  -0.216442   0.000000   0.000000  -0.000000
   34  F  2  X    0.000000  -0.000000   0.000000  -0.118222  -0.000000
   35  F  2  Y    0.000000  -0.000000  -0.118222  -0.000000  -0.000000
   36  F  2  Z   -1.004257   0.097986   0.000000   0.000000  -0.000000
   37  F  2  S   -5.128426   0.089402   0.000000   0.000000  -0.000000
   38  F  2  X    0.000000  -0.000000  -0.000000   0.052188  -0.000000
   39  F  2  Y    0.000000  -0.000000   0.052188   0.000000  -0.000000
   40  F  2  Z    2.062495  -0.137540   0.000000   0.000000  -0.000000
   41  F  2 XX   -0.117278  -0.282627   0.000000   0.000000   0.000000
   42  F  2 YY   -0.117278  -0.282627   0.000000   0.000000  -0.000000
   43  F  2 ZZ   -0.202326   0.730216   0.000000   0.000000  -0.000000
   44  F  2 XY    0.000000  -0.000000   0.000000   0.000000   0.706407
   45  F  2 XZ    0.000000  -0.000000   0.000000  -0.701055  -0.000000
   46  F  2 YZ    0.000000  -0.000000  -0.701055  -0.000000  -0.000000

                     31         32         33         34         35
                    3.6911     3.7292     3.7292     3.8959     3.8959
                     A          A          A          A          A   
    1  F  1  S    0.000000   0.000000  -0.000000  -0.000000   0.000000
    2  F  1  S    0.000000   0.000000  -0.000000  -0.000000   0.000000
    3  F  1  X    0.000000   0.000000   0.000000  -0.000000  -0.040891
    4  F  1  Y    0.000000   0.000000   0.000000  -0.040891   0.000000
    5  F  1  Z   -0.000000   0.000000   0.000000  -0.000000   0.000000
    6  F  1  S   -0.000000   0.000000   0.000000  -0.000000   0.000000
    7  F  1  X    0.000000   0.000000   0.000000  -0.000000  -0.026280
    8  F  1  Y    0.000000   0.000000   0.000000  -0.026280   0.000000
    9  F  1  Z    0.000000   0.000000  -0.000000  -0.000000   0.000000
   10  F  1  S    0.000000   0.000000  -0.000000  -0.000000   0.000000
   11  F  1  X    0.000000   0.000000   0.000000   0.000000   0.150029
   12  F  1  Y    0.000000   0.000000   0.000000   0.150029  -0.000000
   13  F  1  Z   -0.000000   0.000000   0.000000  -0.000000   0.000000
   14  F  1  S   -0.000000   0.000000   0.000000  -0.000000   0.000000
   15  F  1  X    0.000000   0.000000   0.000000  -0.000000  -0.045938
   16  F  1  Y    0.000000   0.000000   0.000000  -0.045938   0.000000
   17  F  1  Z    0.000000   0.000000   0.000000  -0.000000   0.000000
   18  F  1 XX    0.611773   0.000000  -0.612974  -0.000000   0.000000
   19  F  1 YY   -0.611773   0.000000   0.612974  -0.000000   0.000000
   20  F  1 ZZ   -0.000000   0.000000  -0.000000  -0.000000   0.000000
   21  F  1 XY   -0.000000  -0.707801   0.000000  -0.000000   0.000000
   22  F  1 XZ    0.000000   0.000000   0.000000   0.000000   0.717215
   23  F  1 YZ    0.000000   0.000000   0.000000   0.717215  -0.000000
   24  F  2  S    0.000000   0.000000   0.000000  -0.000000   0.000000
   25  F  2  S    0.000000   0.000000  -0.000000  -0.000000   0.000000
   26  F  2  X    0.000000   0.000000   0.000000   0.000000   0.040891
   27  F  2  Y    0.000000   0.000000   0.000000   0.040891  -0.000000
   28  F  2  Z    0.000000   0.000000  -0.000000  -0.000000   0.000000
   29  F  2  S   -0.000000   0.000000   0.000000  -0.000000   0.000000
   30  F  2  X    0.000000   0.000000   0.000000   0.000000   0.026280
   31  F  2  Y    0.000000   0.000000   0.000000   0.026280  -0.000000
   32  F  2  Z    0.000000   0.000000   0.000000  -0.000000   0.000000
   33  F  2  S    0.000000   0.000000  -0.000000  -0.000000   0.000000
   34  F  2  X    0.000000   0.000000   0.000000  -0.000000  -0.150028
   35  F  2  Y    0.000000   0.000000   0.000000  -0.150028   0.000000
   36  F  2  Z   -0.000000   0.000000   0.000000  -0.000000   0.000000
   37  F  2  S    0.000000   0.000000  -0.000000  -0.000000   0.000000
   38  F  2  X    0.000000   0.000000   0.000000   0.000000   0.045937
   39  F  2  Y    0.000000   0.000000   0.000000   0.045937  -0.000000
   40  F  2  Z   -0.000000   0.000000   0.000000  -0.000000   0.000000
   41  F  2 XX    0.611766   0.000000   0.612980  -0.000000   0.000000
   42  F  2 YY   -0.611766   0.000000  -0.612980  -0.000000   0.000000
   43  F  2 ZZ    0.000000   0.000000  -0.000000  -0.000000   0.000000
   44  F  2 XY   -0.000000   0.707809   0.000000  -0.000000   0.000000
   45  F  2 XZ    0.000000   0.000000   0.000000   0.000000   0.717216
   46  F  2 YZ    0.000000   0.000000   0.000000   0.717216  -0.000000

                     36         37         38         39         40
                    4.5840     6.0338     6.1457     6.1457     6.2026
                     A          A          A          A          A   
    1  F  1  S    0.013387   0.000273   0.000000   0.000000   0.000000
    2  F  1  S    0.020478  -0.007223   0.000000   0.000000   0.000000
    3  F  1  X   -0.000000   0.000000  -0.000000  -0.888218   0.000000
    4  F  1  Y   -0.000000   0.000000  -0.888221   0.000000  -0.889539
    5  F  1  Z    0.115382   0.879861   0.000000   0.000000   0.000000
    6  F  1  S   -0.341524  -0.027595   0.000000   0.000000   0.000000
    7  F  1  X   -0.000000   0.000000   0.000000   1.064212  -0.000000
    8  F  1  Y   -0.000000   0.000000   1.064215  -0.000000   1.077613
    9  F  1  Z   -0.218313  -1.118107   0.000000   0.000000   0.000000
   10  F  1  S    1.077208   0.028287   0.000000   0.000000   0.000000
   11  F  1  X   -0.000000   0.000000  -0.000000  -0.560464   0.000000
   12  F  1  Y   -0.000000   0.000000  -0.560466   0.000000  -0.696972
   13  F  1  Z    0.894373   0.655393   0.000000   0.000000   0.000000
   14  F  1  S   -1.052136   0.047542   0.000000   0.000000   0.000000
   15  F  1  X   -0.000000   0.000000   0.000000   0.190174  -0.000000
   16  F  1  Y   -0.000000   0.000000   0.190175  -0.000000   0.354682
   17  F  1  Z   -0.571962  -0.304705   0.000000   0.000000   0.000000
   18  F  1 XX   -0.408606  -0.099103   0.000000   0.000000   0.000000
   19  F  1 YY   -0.408606  -0.099103   0.000000   0.000000   0.000000
   20  F  1 ZZ    0.743543   0.096010   0.000000   0.000000   0.000000
   21  F  1 XY   -0.000000   0.000000   0.000000   0.000000   0.000000
   22  F  1 XZ   -0.000000   0.000000   0.000000   0.014042   0.000000
   23  F  1 YZ   -0.000000   0.000000   0.014042  -0.000000  -0.040842
   24  F  2  S   -0.013387   0.000273   0.000000   0.000000   0.000000
   25  F  2  S   -0.020477  -0.007222   0.000000   0.000000   0.000000
   26  F  2  X   -0.000000   0.000000  -0.000000  -0.888241  -0.000000
   27  F  2  Y   -0.000000   0.000000  -0.888239   0.000000   0.889522
   28  F  2  Z    0.115383  -0.879869   0.000000   0.000000   0.000000
   29  F  2  S    0.341520  -0.027599   0.000000   0.000000   0.000000
   30  F  2  X   -0.000000   0.000000   0.000000   1.064239   0.000000
   31  F  2  Y   -0.000000   0.000000   1.064236  -0.000000  -1.077592
   32  F  2  Z   -0.218314   1.118116   0.000000   0.000000   0.000000
   33  F  2  S   -1.077204   0.028288   0.000000   0.000000   0.000000
   34  F  2  X   -0.000000   0.000000  -0.000000  -0.560482  -0.000000
   35  F  2  Y   -0.000000   0.000000  -0.560480   0.000000   0.696961
   36  F  2  Z    0.894374  -0.655396   0.000000   0.000000   0.000000
   37  F  2  S    1.052135   0.047521   0.000000   0.000000   0.000000
   38  F  2  X   -0.000000   0.000000   0.000000   0.190183   0.000000
   39  F  2  Y   -0.000000   0.000000   0.190182  -0.000000  -0.354678
   40  F  2  Z   -0.571963   0.304716   0.000000   0.000000   0.000000
   41  F  2 XX    0.408608  -0.099100   0.000000   0.000000   0.000000
   42  F  2 YY    0.408608  -0.099100   0.000000   0.000000   0.000000
   43  F  2 ZZ   -0.743544   0.096010   0.000000   0.000000   0.000000
   44  F  2 XY   -0.000000   0.000000   0.000000   0.000000   0.000000
   45  F  2 XZ   -0.000000   0.000000  -0.000000  -0.014041   0.000000
   46  F  2 YZ   -0.000000   0.000000  -0.014041   0.000000  -0.040842

                     41         42         43         44         45
                    6.2026     6.4524     8.1497     8.3367    73.6999
                     A          A          A          A          A   
    1  F  1  S   -0.000000  -0.004209  -0.136287  -0.137191  -1.697196
    2  F  1  S   -0.000000  -0.022880  -0.512841  -0.512218   1.967873
    3  F  1  X   -0.889542  -0.000000   0.000000   0.000000   0.000000
    4  F  1  Y   -0.000000  -0.000000   0.000000   0.000000   0.000000
    5  F  1  Z   -0.000000  -0.889412  -0.010012   0.047671  -0.002074
    6  F  1  S   -0.000000   0.056174   2.011323   1.929035  -0.816623
    7  F  1  X    1.077616  -0.000000   0.000000   0.000000   0.000000
    8  F  1  Y    0.000000  -0.000000   0.000000   0.000000   0.000000
    9  F  1  Z   -0.000000   1.046945  -0.038737  -0.064893   0.014936
   10  F  1  S   -0.000000  -0.022061   0.827721   1.386709  -0.208921
   11  F  1  X   -0.696974  -0.000000   0.000000   0.000000   0.000000
   12  F  1  Y   -0.000000  -0.000000   0.000000   0.000000   0.000000
   13  F  1  Z   -0.000000  -0.649464   0.032122   0.338454  -0.010867
   14  F  1  S   -0.000000  -0.004344  -0.264081  -1.828791   0.068886
   15  F  1  X    0.354683  -0.000000   0.000000   0.000000   0.000000
   16  F  1  Y    0.000000  -0.000000   0.000000   0.000000   0.000000
   17  F  1  Z   -0.000000   0.186596  -0.058922  -0.698183   0.017342
   18  F  1 XX   -0.000000  -0.112712  -1.135542  -1.162023   0.395422
   19  F  1 YY   -0.000000  -0.112712  -1.135542  -1.162023   0.395422
   20  F  1 ZZ   -0.000000   0.058551  -1.101763  -1.088354   0.394736
   21  F  1 XY   -0.000000  -0.000000   0.000000   0.000000   0.000000
   22  F  1 XZ   -0.040842  -0.000000   0.000000   0.000000   0.000000
   23  F  1 YZ   -0.000000  -0.000000   0.000000   0.000000   0.000000
   24  F  2  S   -0.000000   0.004209  -0.136300   0.137179  -1.697380
   25  F  2  S   -0.000000   0.022882  -0.512889   0.512171   1.968086
   26  F  2  X    0.889519  -0.000000   0.000000   0.000000   0.000000
   27  F  2  Y    0.000000  -0.000000   0.000000   0.000000   0.000000
   28  F  2  Z   -0.000000  -0.889404   0.010005   0.047673   0.002074
   29  F  2  S   -0.000000  -0.056180   2.011506  -1.928851  -0.816710
   30  F  2  X   -1.077589  -0.000000   0.000000   0.000000   0.000000
   31  F  2  Y   -0.000000  -0.000000   0.000000   0.000000   0.000000
   32  F  2  Z   -0.000000   1.046934   0.038745  -0.064892  -0.014936
   33  F  2  S   -0.000000   0.022058   0.827824  -1.386629  -0.208958
   34  F  2  X    0.696960  -0.000000   0.000000   0.000000   0.000000
   35  F  2  Y    0.000000  -0.000000   0.000000   0.000000   0.000000
   36  F  2  Z   -0.000000  -0.649457  -0.032151   0.338453   0.010876
   37  F  2  S   -0.000000   0.004344  -0.264129   1.828765   0.068935
   38  F  2  X   -0.354678  -0.000000   0.000000   0.000000   0.000000
   39  F  2  Y   -0.000000  -0.000000   0.000000   0.000000   0.000000
   40  F  2  Z   -0.000000   0.186592   0.058933  -0.698177  -0.017361
   41  F  2 XX   -0.000000   0.112717  -1.135647   1.161919   0.395466
   42  F  2 YY   -0.000000   0.112717  -1.135647   1.161919   0.395466
   43  F  2 ZZ   -0.000000  -0.058548  -1.101863   1.088251   0.394778
   44  F  2 XY   -0.000000  -0.000000   0.000000   0.000000   0.000000
   45  F  2 XZ   -0.040842  -0.000000   0.000000   0.000000   0.000000
   46  F  2 YZ   -0.000000  -0.000000   0.000000   0.000000   0.000000

                     46
                   73.8117
                     A   
    1  F  1  S   -1.698212
    2  F  1  S    1.971612
    3  F  1  X   -0.000000
    4  F  1  Y   -0.000000
    5  F  1  Z   -0.003376
    6  F  1  S   -0.804868
    7  F  1  X   -0.000000
    8  F  1  Y   -0.000000
    9  F  1  Z    0.006372
   10  F  1  S   -0.350057
   11  F  1  X   -0.000000
   12  F  1  Y   -0.000000
   13  F  1  Z   -0.078558
   14  F  1  S    0.487917
   15  F  1  X   -0.000000
   16  F  1  Y   -0.000000
   17  F  1  Z    0.185500
   18  F  1 XX    0.407362
   19  F  1 YY    0.407362
   20  F  1 ZZ    0.392968
   21  F  1 XY   -0.000000
   22  F  1 XZ   -0.000000
   23  F  1 YZ   -0.000000
   24  F  2  S    1.698028
   25  F  2  S   -1.971399
   26  F  2  X   -0.000000
   27  F  2  Y   -0.000000
   28  F  2  Z   -0.003376
   29  F  2  S    0.804779
   30  F  2  X   -0.000000
   31  F  2  Y   -0.000000
   32  F  2  Z    0.006370
   33  F  2  S    0.350034
   34  F  2  X   -0.000000
   35  F  2  Y   -0.000000
   36  F  2  Z   -0.078557
   37  F  2  S   -0.487910
   38  F  2  X   -0.000000
   39  F  2  Y   -0.000000
   40  F  2  Z    0.185498
   41  F  2 XX   -0.407319
   42  F  2 YY   -0.407319
   43  F  2 ZZ   -0.392925
   44  F  2 XY   -0.000000
   45  F  2 XZ   -0.000000
   46  F  2 YZ   -0.000000

 LZ VALUE ANALYSIS FOR THE MOS
 ----------------------------------------
 MO     1 (    1) HAS LZ(WEIGHT)= 0.00(100.0%) 
 MO     2 (    2) HAS LZ(WEIGHT)= 0.00(100.0%) 
 MO     3 (    3) HAS LZ(WEIGHT)= 0.00(100.0%) 
 MO     4 (    4) HAS LZ(WEIGHT)= 0.00(100.0%) 
 MO     5 (    5) HAS LZ(WEIGHT)= 0.00(100.0%) 
 MO     6 (    6) HAS LZ(WEIGHT)=-1.00( 50.0%)  1.00( 50.0%) 
 MO     7 (    6) HAS LZ(WEIGHT)=-1.00( 50.0%)  1.00( 50.0%) 
 MO     8 (    7) HAS LZ(WEIGHT)=-1.00( 50.0%)  1.00( 50.0%) 
 MO     9 (    7) HAS LZ(WEIGHT)=-1.00( 50.0%)  1.00( 50.0%) 
 MO    10 (    8) HAS LZ(WEIGHT)= 0.00(100.0%) 
 MO    11 (    9) HAS LZ(WEIGHT)= 0.00(100.0%) 
 MO    12 (   10) HAS LZ(WEIGHT)= 0.00(100.0%) 
 MO    13 (   11) HAS LZ(WEIGHT)=-1.00( 50.0%)  1.00( 50.0%) 
 MO    14 (   11) HAS LZ(WEIGHT)=-1.00( 50.0%)  1.00( 50.0%) 
 MO    15 (   12) HAS LZ(WEIGHT)= 0.00(100.0%) 
 MO    16 (   13) HAS LZ(WEIGHT)=-1.00( 50.0%)  1.00( 50.0%) 
 MO    17 (   13) HAS LZ(WEIGHT)=-1.00( 50.0%)  1.00( 50.0%) 
 MO    18 (   14) HAS LZ(WEIGHT)= 0.00(100.0%) 
 MO    19 (   15) HAS LZ(WEIGHT)=-1.00( 50.0%)  1.00( 50.0%) 
 MO    20 (   15) HAS LZ(WEIGHT)=-1.00( 50.0%)  1.00( 50.0%) 
 MO    21 (   16) HAS LZ(WEIGHT)= 0.00(100.0%) 
 MO    22 (   17) HAS LZ(WEIGHT)=-1.00( 50.0%)  1.00( 50.0%) 
 MO    23 (   17) HAS LZ(WEIGHT)=-1.00( 50.0%)  1.00( 50.0%) 
 MO    24 (   18) HAS LZ(WEIGHT)= 0.00(100.0%) 
 MO    25 (   19) HAS LZ(WEIGHT)= 0.00(100.0%) 
 MO    26 (   20) HAS LZ(WEIGHT)= 0.00(100.0%) 
 MO    27 (   21) HAS LZ(WEIGHT)= 0.00(100.0%) 
 MO    28 (   22) HAS LZ(WEIGHT)=-1.00( 50.0%)  1.00( 50.0%) 
 MO    29 (   22) HAS LZ(WEIGHT)=-1.00( 50.0%)  1.00( 50.0%) 
 MO    30 (   23) HAS LZ(WEIGHT)=-2.00( 50.0%)  2.00( 50.0%) 
 MO    31 (   23) HAS LZ(WEIGHT)=-2.00( 50.0%)  2.00( 50.0%) 
 MO    32 (   24) HAS LZ(WEIGHT)=-2.00( 50.0%)  2.00( 50.0%) 
 MO    33 (   24) HAS LZ(WEIGHT)=-2.00( 50.0%)  2.00( 50.0%) 
 MO    34 (   25) HAS LZ(WEIGHT)=-1.00( 50.0%)  1.00( 50.0%) 
 MO    35 (   25) HAS LZ(WEIGHT)=-1.00( 50.0%)  1.00( 50.0%) 
 MO    36 (   26) HAS LZ(WEIGHT)= 0.00(100.0%) 
 MO    37 (   27) HAS LZ(WEIGHT)= 0.00(100.0%) 
 MO    38 (   28) HAS LZ(WEIGHT)=-1.00( 50.0%)  1.00( 50.0%) 
 MO    39 (   28) HAS LZ(WEIGHT)=-1.00( 50.0%)  1.00( 50.0%) 
 MO    40 (   29) HAS LZ(WEIGHT)=-1.00( 50.0%)  1.00( 50.0%) 
 MO    41 (   29) HAS LZ(WEIGHT)=-1.00( 50.0%)  1.00( 50.0%) 
 MO    42 (   30) HAS LZ(WEIGHT)= 0.00(100.0%) 
 MO    43 (   31) HAS LZ(WEIGHT)= 0.00(100.0%) 
 MO    44 (   32) HAS LZ(WEIGHT)= 0.00(100.0%) 
 MO    45 (   33) HAS LZ(WEIGHT)= 0.00(100.0%) 
 MO    46 (   34) HAS LZ(WEIGHT)= 0.00(100.0%) 

  ----- BETA SET ----- 

          ------------
          EIGENVECTORS
          ------------

                      1          2          3          4          5
                  -24.7998   -24.7998    -1.3634    -1.1209    -0.6152
                     A          A          A          A          A   
    1  F  1  S    0.389977  -0.385090  -0.087186  -0.095635  -0.023445
    2  F  1  S    0.333553  -0.329381  -0.141801  -0.157742  -0.039916
    3  F  1  X    0.000000  -0.000000  -0.000000  -0.000000   0.000000
    4  F  1  Y    0.000000  -0.000000  -0.000000  -0.000000   0.000000
    5  F  1  Z    0.000655  -0.000615   0.041062  -0.023098  -0.216376
    6  F  1  S    0.014275  -0.014016   0.423786   0.482359   0.130368
    7  F  1  X    0.000000  -0.000000  -0.000000  -0.000000   0.000000
    8  F  1  Y    0.000000  -0.000000  -0.000000  -0.000000   0.000000
    9  F  1  Z   -0.000285   0.000238   0.071999  -0.031288  -0.325527
   10  F  1  S   -0.000000  -0.000326   0.305304   0.399893   0.115403
   11  F  1  X    0.000000  -0.000000  -0.000000  -0.000000   0.000000
   12  F  1  Y    0.000000  -0.000000  -0.000000  -0.000000   0.000000
   13  F  1  Z    0.000165  -0.000337   0.036445  -0.002951  -0.238571
   14  F  1  S   -0.000053   0.000846  -0.013183  -0.091830   0.032246
   15  F  1  X    0.000000  -0.000000  -0.000000  -0.000000   0.000000
   16  F  1  Y    0.000000  -0.000000  -0.000000  -0.000000   0.000000
   17  F  1  Z   -0.000095   0.000403  -0.012995  -0.041233  -0.002184
   18  F  1 XX   -0.003735   0.003700  -0.009455  -0.005455   0.005103
   19  F  1 YY   -0.003735   0.003700  -0.009455  -0.005455   0.005103
   20  F  1 ZZ   -0.003735   0.003629   0.013603  -0.005657  -0.021074
   21  F  1 XY    0.000000  -0.000000  -0.000000  -0.000000   0.000000
   22  F  1 XZ    0.000000  -0.000000  -0.000000  -0.000000   0.000000
   23  F  1 YZ    0.000000  -0.000000  -0.000000  -0.000000   0.000000
   24  F  2  S    0.385089   0.389978  -0.087186   0.095635  -0.023445
   25  F  2  S    0.329372   0.333562  -0.141801   0.157742  -0.039916
   26  F  2  X    0.000000  -0.000000  -0.000000  -0.000000   0.000000
   27  F  2  Y    0.000000  -0.000000  -0.000000  -0.000000   0.000000
   28  F  2  Z   -0.000647  -0.000623  -0.041062  -0.023098   0.216376
   29  F  2  S    0.014097   0.014195   0.423788  -0.482358   0.130368
   30  F  2  X    0.000000  -0.000000  -0.000000  -0.000000   0.000000
   31  F  2  Y    0.000000  -0.000000  -0.000000  -0.000000   0.000000
   32  F  2  Z    0.000282   0.000241  -0.071999  -0.031288   0.325527
   33  F  2  S   -0.000003   0.000326   0.305299  -0.399895   0.115412
   34  F  2  X    0.000000  -0.000000  -0.000000  -0.000000   0.000000
   35  F  2  Y    0.000000  -0.000000  -0.000000  -0.000000   0.000000
   36  F  2  Z   -0.000161  -0.000339  -0.036445  -0.002951   0.238570
   37  F  2  S   -0.000047  -0.000846  -0.013136   0.091832   0.032195
   38  F  2  X    0.000000  -0.000000  -0.000000  -0.000000   0.000000
   39  F  2  Y    0.000000  -0.000000  -0.000000  -0.000000   0.000000
   40  F  2  Z    0.000092   0.000405   0.012973  -0.041233   0.002207
   41  F  2 XX   -0.003688  -0.003747  -0.009455   0.005455   0.005102
   42  F  2 YY   -0.003688  -0.003747  -0.009455   0.005455   0.005102
   43  F  2 ZZ   -0.003689  -0.003676   0.013603   0.005657  -0.021074
   44  F  2 XY    0.000000  -0.000000  -0.000000  -0.000000   0.000000
   45  F  2 XZ    0.000000  -0.000000  -0.000000  -0.000000   0.000000
   46  F  2 YZ    0.000000  -0.000000  -0.000000  -0.000000   0.000000

                      6          7          8          9         10
                   -0.5521    -0.5521    -0.4246    -0.4246    -0.1719
                     A          A          A          A          A   
    1  F  1  S   -0.000000  -0.000000  -0.000000   0.000000  -0.026938
    2  F  1  S   -0.000000  -0.000000  -0.000000   0.000000  -0.045975
    3  F  1  X   -0.000000   0.223029   0.000000  -0.246796   0.000000
    4  F  1  Y    0.223029   0.000000  -0.246796  -0.000000   0.000000
    5  F  1  Z   -0.000000  -0.000000  -0.000000   0.000000   0.256253
    6  F  1  S   -0.000000  -0.000000  -0.000000   0.000000   0.156205
    7  F  1  X   -0.000000   0.318398   0.000000  -0.351918   0.000000
    8  F  1  Y    0.318398   0.000000  -0.351918  -0.000000   0.000000
    9  F  1  Z   -0.000000  -0.000000  -0.000000   0.000000   0.370017
   10  F  1  S   -0.000000  -0.000000  -0.000000   0.000000   0.243784
   11  F  1  X   -0.000000   0.263202   0.000000  -0.302620   0.000000
   12  F  1  Y    0.263202   0.000000  -0.302620  -0.000000   0.000000
   13  F  1  Z   -0.000000  -0.000000  -0.000000   0.000000   0.394382
   14  F  1  S   -0.000000  -0.000000  -0.000000   0.000000   0.202385
   15  F  1  X   -0.000000   0.026869   0.000000  -0.050957   0.000000
   16  F  1  Y    0.026869   0.000000  -0.050957  -0.000000   0.000000
   17  F  1  Z   -0.000000  -0.000000  -0.000000   0.000000   0.203583
   18  F  1 XX   -0.000000  -0.000000  -0.000000   0.000000   0.001147
   19  F  1 YY   -0.000000  -0.000000  -0.000000   0.000000   0.001147
   20  F  1 ZZ   -0.000000  -0.000000  -0.000000   0.000000  -0.011568
   21  F  1 XY   -0.000000  -0.000000  -0.000000   0.000000   0.000000
   22  F  1 XZ   -0.000000   0.011736  -0.000000  -0.000030   0.000000
   23  F  1 YZ    0.011736   0.000000  -0.000030   0.000000   0.000000
   24  F  2  S   -0.000000  -0.000000  -0.000000   0.000000   0.026938
   25  F  2  S   -0.000000  -0.000000  -0.000000   0.000000   0.045975
   26  F  2  X   -0.000000   0.223029  -0.000000   0.246796   0.000000
   27  F  2  Y    0.223029   0.000000   0.246796   0.000000   0.000000
   28  F  2  Z   -0.000000  -0.000000  -0.000000   0.000000   0.256252
   29  F  2  S   -0.000000  -0.000000  -0.000000   0.000000  -0.156203
   30  F  2  X   -0.000000   0.318398  -0.000000   0.351919   0.000000
   31  F  2  Y    0.318398   0.000000   0.351919   0.000000   0.000000
   32  F  2  Z   -0.000000  -0.000000  -0.000000   0.000000   0.370017
   33  F  2  S   -0.000000  -0.000000  -0.000000   0.000000  -0.243782
   34  F  2  X   -0.000000   0.263201  -0.000000   0.302621   0.000000
   35  F  2  Y    0.263201   0.000000   0.302621   0.000000   0.000000
   36  F  2  Z   -0.000000  -0.000000  -0.000000   0.000000   0.394381
   37  F  2  S   -0.000000  -0.000000  -0.000000   0.000000  -0.202386
   38  F  2  X   -0.000000   0.026870  -0.000000   0.050957   0.000000
   39  F  2  Y    0.026870   0.000000   0.050957   0.000000   0.000000
   40  F  2  Z   -0.000000  -0.000000  -0.000000   0.000000   0.203584
   41  F  2 XX   -0.000000  -0.000000  -0.000000   0.000000  -0.001148
   42  F  2 YY   -0.000000  -0.000000  -0.000000   0.000000  -0.001148
   43  F  2 ZZ   -0.000000  -0.000000  -0.000000   0.000000   0.011567
   44  F  2 XY   -0.000000  -0.000000  -0.000000   0.000000   0.000000
   45  F  2 XZ    0.000000  -0.011736  -0.000000  -0.000030   0.000000
   46  F  2 YZ   -0.011736  -0.000000  -0.000030   0.000000   0.000000

                     11         12         13         14         15
                    0.1083     0.1584     0.1798     0.1798     0.2549
                     A          A          A          A          A   
    1  F  1  S    0.027893  -0.012122   0.000000   0.000000  -0.007593
    2  F  1  S    0.051094  -0.021251   0.000000   0.000000  -0.014902
    3  F  1  X   -0.000000   0.000000   0.000000  -0.094997   0.000000
    4  F  1  Y   -0.000000   0.000000  -0.094997  -0.000000   0.000000
    5  F  1  Z    0.034004  -0.100202   0.000000   0.000000   0.054750
    6  F  1  S   -0.138414   0.074531   0.000000   0.000000   0.027459
    7  F  1  X   -0.000000   0.000000   0.000000  -0.099504   0.000000
    8  F  1  Y   -0.000000   0.000000  -0.099504  -0.000000   0.000000
    9  F  1  Z    0.029937  -0.113564   0.000000   0.000000   0.048716
   10  F  1  S   -0.671181   0.143909   0.000000   0.000000   0.401890
   11  F  1  X   -0.000000   0.000000   0.000000  -0.326483   0.000000
   12  F  1  Y   -0.000000   0.000000  -0.326484  -0.000000   0.000000
   13  F  1  Z    0.103436  -0.360815   0.000000   0.000000   0.270419
   14  F  1  S    0.974439   1.561104   0.000000   0.000000  -0.065839
   15  F  1  X   -0.000000   0.000000  -0.000000   0.702198   0.000000
   16  F  1  Y   -0.000000   0.000000   0.702199   0.000000   0.000000
   17  F  1  Z   -0.263953   1.617666   0.000000   0.000000  -1.113459
   18  F  1 XX    0.017475  -0.001906   0.000000   0.000000  -0.015808
   19  F  1 YY    0.017475  -0.001906   0.000000   0.000000  -0.015808
   20  F  1 ZZ    0.009727  -0.003374   0.000000   0.000000   0.008316
   21  F  1 XY   -0.000000   0.000000   0.000000   0.000000   0.000000
   22  F  1 XZ   -0.000000   0.000000   0.000000  -0.003323   0.000000
   23  F  1 YZ   -0.000000   0.000000  -0.003323  -0.000000   0.000000
   24  F  2  S    0.027893   0.012123   0.000000   0.000000  -0.007594
   25  F  2  S    0.051095   0.021250   0.000000   0.000000  -0.014905
   26  F  2  X   -0.000000   0.000000   0.000000  -0.094997   0.000000
   27  F  2  Y   -0.000000   0.000000  -0.094997  -0.000000   0.000000
   28  F  2  Z   -0.034001  -0.100205   0.000000   0.000000  -0.054747
   29  F  2  S   -0.138409  -0.074531   0.000000   0.000000   0.027461
   30  F  2  X   -0.000000   0.000000   0.000000  -0.099503   0.000000
   31  F  2  Y   -0.000000   0.000000  -0.099503  -0.000000   0.000000
   32  F  2  Z   -0.029933  -0.113568   0.000000   0.000000  -0.048713
   33  F  2  S   -0.671245  -0.143907   0.000000   0.000000   0.401995
   34  F  2  X   -0.000000   0.000000   0.000000  -0.326485   0.000000
   35  F  2  Y   -0.000000   0.000000  -0.326484  -0.000000   0.000000
   36  F  2  Z   -0.103424  -0.360824   0.000000   0.000000  -0.270413
   37  F  2  S    0.974927  -1.561084   0.000000   0.000000  -0.066542
   38  F  2  X   -0.000000   0.000000  -0.000000   0.702200   0.000000
   39  F  2  Y   -0.000000   0.000000   0.702199   0.000000   0.000000
   40  F  2  Z    0.263716   1.617704   0.000000   0.000000   1.113742
   41  F  2 XX    0.017478   0.001903   0.000000   0.000000  -0.015812
   42  F  2 YY    0.017478   0.001903   0.000000   0.000000  -0.015812
   43  F  2 ZZ    0.009730   0.003370   0.000000   0.000000   0.008312
   44  F  2 XY   -0.000000   0.000000   0.000000   0.000000   0.000000
   45  F  2 XZ   -0.000000   0.000000  -0.000000   0.003323   0.000000
   46  F  2 YZ   -0.000000   0.000000   0.003323   0.000000   0.000000

                     16         17         18         19         20
                    0.2587     0.2587     0.4168     1.1610     1.1610
                     A          A          A          A          A   
    1  F  1  S   -0.000000  -0.000000   0.018799   0.000000   0.000000
    2  F  1  S   -0.000000  -0.000000   0.037513   0.000000   0.000000
    3  F  1  X    0.000000  -0.078564  -0.000000  -0.000000  -0.200367
    4  F  1  Y    0.078564   0.000000  -0.000000  -0.200367   0.000000
    5  F  1  Z   -0.000000  -0.000000   0.005288   0.000000   0.000000
    6  F  1  S   -0.000000  -0.000000  -0.063304   0.000000   0.000000
    7  F  1  X    0.000000  -0.074535  -0.000000  -0.000000  -0.559186
    8  F  1  Y    0.074535   0.000000  -0.000000  -0.559186   0.000000
    9  F  1  Z   -0.000000  -0.000000   0.002722   0.000000   0.000000
   10  F  1  S   -0.000000  -0.000000  -1.036501   0.000000   0.000000
   11  F  1  X    0.000000  -0.324127  -0.000000   0.000000   1.045414
   12  F  1  Y    0.324127   0.000000  -0.000000   1.045416  -0.000000
   13  F  1  Z   -0.000000  -0.000000   0.037869   0.000000   0.000000
   14  F  1  S   -0.000000  -0.000000   9.269303   0.000000   0.000000
   15  F  1  X   -0.000000   1.486085  -0.000000  -0.000000  -0.478588
   16  F  1  Y   -1.486084  -0.000000  -0.000000  -0.478590   0.000000
   17  F  1  Z   -0.000000  -0.000000   4.100591   0.000000   0.000000
   18  F  1 XX   -0.000000  -0.000000   0.027065   0.000000   0.000000
   19  F  1 YY   -0.000000  -0.000000   0.027065   0.000000   0.000000
   20  F  1 ZZ   -0.000000  -0.000000   0.009880   0.000000   0.000000
   21  F  1 XY   -0.000000  -0.000000  -0.000000   0.000000   0.000000
   22  F  1 XZ   -0.000000  -0.007126  -0.000000   0.000000   0.018502
   23  F  1 YZ    0.007126  -0.000000  -0.000000   0.018502  -0.000000
   24  F  2  S   -0.000000  -0.000000  -0.018797   0.000000   0.000000
   25  F  2  S   -0.000000  -0.000000  -0.037513   0.000000   0.000000
   26  F  2  X   -0.000000   0.078564  -0.000000  -0.000000  -0.200368
   27  F  2  Y   -0.078564  -0.000000  -0.000000  -0.200368   0.000000
   28  F  2  Z   -0.000000  -0.000000   0.005287   0.000000   0.000000
   29  F  2  S   -0.000000  -0.000000   0.063292   0.000000   0.000000
   30  F  2  X   -0.000000   0.074535  -0.000000  -0.000000  -0.559191
   31  F  2  Y   -0.074535  -0.000000  -0.000000  -0.559190   0.000000
   32  F  2  Z   -0.000000  -0.000000   0.002712   0.000000   0.000000
   33  F  2  S   -0.000000  -0.000000   1.036499   0.000000   0.000000
   34  F  2  X   -0.000000   0.324127  -0.000000   0.000000   1.045427
   35  F  2  Y   -0.324127  -0.000000  -0.000000   1.045425  -0.000000
   36  F  2  Z   -0.000000  -0.000000   0.037904   0.000000   0.000000
   37  F  2  S   -0.000000  -0.000000  -9.269280   0.000000   0.000000
   38  F  2  X    0.000000  -1.486084  -0.000000  -0.000000  -0.478597
   39  F  2  Y    1.486084   0.000000  -0.000000  -0.478596   0.000000
   40  F  2  Z   -0.000000  -0.000000   4.100509   0.000000   0.000000
   41  F  2 XX   -0.000000  -0.000000  -0.027075   0.000000   0.000000
   42  F  2 YY   -0.000000  -0.000000  -0.027075   0.000000   0.000000
   43  F  2 ZZ   -0.000000  -0.000000  -0.009901   0.000000   0.000000
   44  F  2 XY   -0.000000  -0.000000  -0.000000   0.000000   0.000000
   45  F  2 XZ   -0.000000  -0.007126  -0.000000  -0.000000  -0.018502
   46  F  2 YZ    0.007126  -0.000000  -0.000000  -0.018502   0.000000

                     21         22         23         24         25
                    1.1962     1.3003     1.3003     1.3093     1.5174
                     A          A          A          A          A   
    1  F  1  S   -0.022795  -0.000000   0.000000   0.044414   0.070129
    2  F  1  S   -0.037272  -0.000000   0.000000   0.063143   0.098181
    3  F  1  X    0.000000   0.000000  -0.178151  -0.000000  -0.000000
    4  F  1  Y    0.000000  -0.178150  -0.000000  -0.000000  -0.000000
    5  F  1  Z   -0.156052  -0.000000   0.000000   0.144152  -0.127747
    6  F  1  S    0.164434  -0.000000   0.000000  -0.567548  -0.887229
    7  F  1  X    0.000000   0.000000  -0.562159  -0.000000  -0.000000
    8  F  1  Y    0.000000  -0.562159  -0.000000  -0.000000  -0.000000
    9  F  1  Z   -0.510334  -0.000000   0.000000   0.503741  -0.411311
   10  F  1  S    0.372572  -0.000000   0.000000   1.143563   1.390635
   11  F  1  X    0.000000  -0.000000   1.363499  -0.000000  -0.000000
   12  F  1  Y    0.000000   1.363497   0.000000  -0.000000  -0.000000
   13  F  1  Z    1.825927  -0.000000   0.000000  -0.937638   0.603869
   14  F  1  S   -0.359261  -0.000000   0.000000  -0.565150  -0.481883
   15  F  1  X    0.000000   0.000000  -0.928156  -0.000000  -0.000000
   16  F  1  Y    0.000000  -0.928155  -0.000000  -0.000000  -0.000000
   17  F  1  Z   -0.785741  -0.000000   0.000000   0.511691  -0.463605
   18  F  1 XX    0.014798  -0.000000   0.000000  -0.079536  -0.086589
   19  F  1 YY    0.014798  -0.000000   0.000000  -0.079536  -0.086589
   20  F  1 ZZ   -0.004657  -0.000000   0.000000  -0.027131  -0.143206
   21  F  1 XY    0.000000  -0.000000   0.000000  -0.000000  -0.000000
   22  F  1 XZ    0.000000   0.000000  -0.028568  -0.000000  -0.000000
   23  F  1 YZ    0.000000  -0.028568  -0.000000  -0.000000  -0.000000
   24  F  2  S    0.022795  -0.000000   0.000000   0.044418   0.070135
   25  F  2  S    0.037272  -0.000000   0.000000   0.063147   0.098189
   26  F  2  X    0.000000  -0.000000   0.178148  -0.000000  -0.000000
   27  F  2  Y    0.000000   0.178149   0.000000  -0.000000  -0.000000
   28  F  2  Z   -0.156056  -0.000000   0.000000  -0.144148   0.127746
   29  F  2  S   -0.164436  -0.000000   0.000000  -0.567599  -0.887322
   30  F  2  X    0.000000  -0.000000   0.562155  -0.000000  -0.000000
   31  F  2  Y    0.000000   0.562155   0.000000  -0.000000  -0.000000
   32  F  2  Z   -0.510348  -0.000000   0.000000  -0.503728   0.411314
   33  F  2  S   -0.372563  -0.000000   0.000000   1.143688   1.390866
   34  F  2  X    0.000000   0.000000  -1.363489  -0.000000  -0.000000
   35  F  2  Y    0.000000  -1.363490  -0.000000  -0.000000  -0.000000
   36  F  2  Z    1.825950  -0.000000   0.000000   0.937556  -0.603934
   37  F  2  S    0.359256  -0.000000   0.000000  -0.565131  -0.482185
   38  F  2  X    0.000000  -0.000000   0.928151  -0.000000  -0.000000
   39  F  2  Y    0.000000   0.928151   0.000000  -0.000000  -0.000000
   40  F  2  Z   -0.785754  -0.000000   0.000000  -0.511700   0.463716
   41  F  2 XX   -0.014800  -0.000000   0.000000  -0.079543  -0.086599
   42  F  2 YY   -0.014800  -0.000000   0.000000  -0.079543  -0.086599
   43  F  2 ZZ    0.004656  -0.000000   0.000000  -0.027141  -0.143221
   44  F  2 XY    0.000000  -0.000000   0.000000  -0.000000  -0.000000
   45  F  2 XZ    0.000000   0.000000  -0.028569  -0.000000  -0.000000
   46  F  2 YZ    0.000000  -0.028569  -0.000000  -0.000000  -0.000000

                     26         27         28         29         30
                    1.7518     3.2745     3.5187     3.5187     3.6911
                     A          A          A          A          A   
    1  F  1  S   -0.070988   0.006487  -0.000000  -0.000000  -0.000000
    2  F  1  S   -0.093312   0.026911  -0.000000  -0.000000  -0.000000
    3  F  1  X    0.000000  -0.000000  -0.000000   0.005649  -0.000000
    4  F  1  Y    0.000000  -0.000000   0.005649   0.000000  -0.000000
    5  F  1  Z    0.008085  -0.155119  -0.000000  -0.000000  -0.000000
    6  F  1  S    1.165423  -0.049190  -0.000000  -0.000000  -0.000000
    7  F  1  X    0.000000  -0.000000  -0.000000   0.036839  -0.000000
    8  F  1  Y    0.000000  -0.000000   0.036839   0.000000  -0.000000
    9  F  1  Z    0.083076   0.103989  -0.000000  -0.000000  -0.000000
   10  F  1  S   -3.097952  -0.216476  -0.000000  -0.000000  -0.000000
   11  F  1  X    0.000000  -0.000000   0.000000  -0.118222  -0.000000
   12  F  1  Y    0.000000  -0.000000  -0.118222  -0.000000  -0.000000
   13  F  1  Z   -1.004261  -0.097993  -0.000000  -0.000000  -0.000000
   14  F  1  S    5.128495   0.089545  -0.000000  -0.000000  -0.000000
   15  F  1  X    0.000000  -0.000000  -0.000000   0.052188  -0.000000
   16  F  1  Y    0.000000  -0.000000   0.052188   0.000000  -0.000000
   17  F  1  Z    2.062511   0.137604  -0.000000  -0.000000  -0.000000
   18  F  1 XX    0.117286  -0.282628  -0.000000  -0.000000  -0.000000
   19  F  1 YY    0.117286  -0.282628  -0.000000  -0.000000   0.000000
   20  F  1 ZZ    0.202327   0.730217  -0.000000  -0.000000  -0.000000
   21  F  1 XY    0.000000  -0.000000  -0.000000  -0.000000   0.706415
   22  F  1 XZ    0.000000  -0.000000  -0.000001   0.701056  -0.000000
   23  F  1 YZ    0.000000  -0.000000   0.701056   0.000001  -0.000000
   24  F  2  S    0.070980   0.006488  -0.000000  -0.000000  -0.000000
   25  F  2  S    0.093298   0.026912  -0.000000  -0.000000  -0.000000
   26  F  2  X    0.000000  -0.000000  -0.000000   0.005649  -0.000000
   27  F  2  Y    0.000000  -0.000000   0.005649   0.000000  -0.000000
   28  F  2  Z    0.008081   0.155119  -0.000000  -0.000000  -0.000000
   29  F  2  S   -1.165318  -0.049202  -0.000000  -0.000000  -0.000000
   30  F  2  X    0.000000  -0.000000  -0.000000   0.036838  -0.000000
   31  F  2  Y    0.000000  -0.000000   0.036838   0.000000  -0.000000
   32  F  2  Z    0.083067  -0.103988  -0.000000  -0.000000  -0.000000
   33  F  2  S    3.097788  -0.216442  -0.000000  -0.000000  -0.000000
   34  F  2  X    0.000000  -0.000000   0.000000  -0.118222  -0.000000
   35  F  2  Y    0.000000  -0.000000  -0.118222  -0.000000  -0.000000
   36  F  2  Z   -1.004257   0.097986  -0.000000  -0.000000  -0.000000
   37  F  2  S   -5.128426   0.089402  -0.000000  -0.000000  -0.000000
   38  F  2  X    0.000000  -0.000000  -0.000000   0.052188  -0.000000
   39  F  2  Y    0.000000  -0.000000   0.052188   0.000000  -0.000000
   40  F  2  Z    2.062495  -0.137540  -0.000000  -0.000000  -0.000000
   41  F  2 XX   -0.117278  -0.282627  -0.000000  -0.000000  -0.000000
   42  F  2 YY   -0.117278  -0.282627  -0.000000  -0.000000   0.000000
   43  F  2 ZZ   -0.202326   0.730216  -0.000000  -0.000000  -0.000000
   44  F  2 XY    0.000000  -0.000000  -0.000000  -0.000000   0.706407
   45  F  2 XZ    0.000000  -0.000000   0.000001  -0.701055  -0.000000
   46  F  2 YZ    0.000000  -0.000000  -0.701055  -0.000001  -0.000000

                     31         32         33         34         35
                    3.6911     3.7292     3.7292     3.8959     3.8959
                     A          A          A          A          A   
    1  F  1  S    0.000000  -0.000000  -0.000000   0.000000  -0.000000
    2  F  1  S    0.000000  -0.000000  -0.000000   0.000000  -0.000000
    3  F  1  X    0.000000  -0.000000   0.000000   0.000000  -0.040891
    4  F  1  Y    0.000000  -0.000000   0.000000  -0.040891  -0.000000
    5  F  1  Z   -0.000000  -0.000000   0.000000   0.000000  -0.000000
    6  F  1  S   -0.000000  -0.000000   0.000000   0.000000  -0.000000
    7  F  1  X    0.000000  -0.000000   0.000000   0.000000  -0.026280
    8  F  1  Y    0.000000  -0.000000   0.000000  -0.026280  -0.000000
    9  F  1  Z    0.000000  -0.000000  -0.000000   0.000000  -0.000000
   10  F  1  S    0.000000  -0.000000  -0.000000   0.000000  -0.000000
   11  F  1  X    0.000000  -0.000000   0.000000  -0.000000   0.150029
   12  F  1  Y    0.000000  -0.000000   0.000000   0.150029   0.000000
   13  F  1  Z   -0.000000  -0.000000   0.000000   0.000000  -0.000000
   14  F  1  S   -0.000000  -0.000000   0.000000   0.000000  -0.000000
   15  F  1  X    0.000000  -0.000000   0.000000   0.000000  -0.045938
   16  F  1  Y    0.000000  -0.000000   0.000000  -0.045938  -0.000000
   17  F  1  Z    0.000000  -0.000000   0.000000   0.000000  -0.000000
   18  F  1 XX    0.611773   0.000000  -0.612974   0.000000  -0.000000
   19  F  1 YY   -0.611773  -0.000000   0.612974   0.000000  -0.000000
   20  F  1 ZZ   -0.000000  -0.000000  -0.000000   0.000000  -0.000000
   21  F  1 XY    0.000000  -0.707801  -0.000000   0.000000  -0.000000
   22  F  1 XZ    0.000000  -0.000000   0.000000  -0.000000   0.717215
   23  F  1 YZ    0.000000  -0.000000   0.000000   0.717215   0.000000
   24  F  2  S    0.000000  -0.000000   0.000000   0.000000  -0.000000
   25  F  2  S    0.000000  -0.000000  -0.000000   0.000000  -0.000000
   26  F  2  X    0.000000  -0.000000   0.000000  -0.000000   0.040891
   27  F  2  Y    0.000000  -0.000000   0.000000   0.040891   0.000000
   28  F  2  Z    0.000000  -0.000000  -0.000000   0.000000  -0.000000
   29  F  2  S   -0.000000  -0.000000   0.000000   0.000000  -0.000000
   30  F  2  X    0.000000  -0.000000   0.000000  -0.000000   0.026280
   31  F  2  Y    0.000000  -0.000000   0.000000   0.026280   0.000000
   32  F  2  Z    0.000000  -0.000000   0.000000   0.000000  -0.000000
   33  F  2  S    0.000000  -0.000000  -0.000000   0.000000  -0.000000
   34  F  2  X    0.000000  -0.000000   0.000000   0.000000  -0.150028
   35  F  2  Y    0.000000  -0.000000   0.000000  -0.150028  -0.000000
   36  F  2  Z   -0.000000  -0.000000   0.000000   0.000000  -0.000000
   37  F  2  S    0.000000  -0.000000  -0.000000   0.000000  -0.000000
   38  F  2  X    0.000000  -0.000000   0.000000  -0.000000   0.045937
   39  F  2  Y    0.000000  -0.000000   0.000000   0.045937   0.000000
   40  F  2  Z   -0.000000  -0.000000   0.000000   0.000000  -0.000000
   41  F  2 XX    0.611766  -0.000000   0.612980   0.000000  -0.000000
   42  F  2 YY   -0.611766   0.000000  -0.612980   0.000000  -0.000000
   43  F  2 ZZ    0.000000  -0.000000  -0.000000   0.000000  -0.000000
   44  F  2 XY    0.000000   0.707809   0.000000   0.000000  -0.000000
   45  F  2 XZ    0.000000  -0.000000   0.000000  -0.000000   0.717216
   46  F  2 YZ    0.000000  -0.000000   0.000000   0.717216   0.000000

                     36         37         38         39         40
                    4.5840     6.0338     6.1457     6.1457     6.2026
                     A          A          A          A          A   
    1  F  1  S    0.013387   0.000273   0.000000  -0.000000  -0.000000
    2  F  1  S    0.020478  -0.007223   0.000000  -0.000000  -0.000000
    3  F  1  X   -0.000000   0.000000  -0.000000  -0.888218  -0.000000
    4  F  1  Y   -0.000000   0.000000  -0.888221   0.000000  -0.889539
    5  F  1  Z    0.115382   0.879861   0.000000  -0.000000  -0.000000
    6  F  1  S   -0.341524  -0.027595   0.000000  -0.000000  -0.000000
    7  F  1  X   -0.000000   0.000000   0.000000   1.064212   0.000000
    8  F  1  Y   -0.000000   0.000000   1.064215  -0.000000   1.077613
    9  F  1  Z   -0.218313  -1.118107   0.000000  -0.000000  -0.000000
   10  F  1  S    1.077208   0.028287   0.000000  -0.000000  -0.000000
   11  F  1  X   -0.000000   0.000000  -0.000000  -0.560464  -0.000000
   12  F  1  Y   -0.000000   0.000000  -0.560466   0.000000  -0.696972
   13  F  1  Z    0.894373   0.655393   0.000000  -0.000000  -0.000000
   14  F  1  S   -1.052136   0.047542   0.000000  -0.000000  -0.000000
   15  F  1  X   -0.000000   0.000000   0.000000   0.190174   0.000000
   16  F  1  Y   -0.000000   0.000000   0.190175  -0.000000   0.354682
   17  F  1  Z   -0.571962  -0.304705   0.000000  -0.000000  -0.000000
   18  F  1 XX   -0.408606  -0.099103   0.000000  -0.000000  -0.000000
   19  F  1 YY   -0.408606  -0.099103   0.000000  -0.000000  -0.000000
   20  F  1 ZZ    0.743543   0.096010   0.000000  -0.000000  -0.000000
   21  F  1 XY   -0.000000   0.000000   0.000000  -0.000000  -0.000000
   22  F  1 XZ   -0.000000   0.000000   0.000000   0.014042  -0.000000
   23  F  1 YZ   -0.000000   0.000000   0.014042  -0.000000  -0.040842
   24  F  2  S   -0.013387   0.000273   0.000000  -0.000000  -0.000000
   25  F  2  S   -0.020477  -0.007222   0.000000  -0.000000  -0.000000
   26  F  2  X   -0.000000   0.000000  -0.000000  -0.888241   0.000000
   27  F  2  Y   -0.000000   0.000000  -0.888239   0.000000   0.889522
   28  F  2  Z    0.115383  -0.879869   0.000000  -0.000000  -0.000000
   29  F  2  S    0.341520  -0.027599   0.000000  -0.000000  -0.000000
   30  F  2  X   -0.000000   0.000000   0.000000   1.064239  -0.000000
   31  F  2  Y   -0.000000   0.000000   1.064236  -0.000000  -1.077592
   32  F  2  Z   -0.218314   1.118116   0.000000  -0.000000  -0.000000
   33  F  2  S   -1.077204   0.028288   0.000000  -0.000000  -0.000000
   34  F  2  X   -0.000000   0.000000  -0.000000  -0.560482   0.000000
   35  F  2  Y   -0.000000   0.000000  -0.560480   0.000000   0.696961
   36  F  2  Z    0.894374  -0.655396   0.000000  -0.000000  -0.000000
   37  F  2  S    1.052135   0.047521   0.000000  -0.000000  -0.000000
   38  F  2  X   -0.000000   0.000000   0.000000   0.190183  -0.000000
   39  F  2  Y   -0.000000   0.000000   0.190182  -0.000000  -0.354678
   40  F  2  Z   -0.571963   0.304716   0.000000  -0.000000  -0.000000
   41  F  2 XX    0.408608  -0.099100   0.000000  -0.000000  -0.000000
   42  F  2 YY    0.408608  -0.099100   0.000000  -0.000000  -0.000000
   43  F  2 ZZ   -0.743544   0.096010   0.000000  -0.000000  -0.000000
   44  F  2 XY   -0.000000   0.000000   0.000000  -0.000000  -0.000000
   45  F  2 XZ   -0.000000   0.000000  -0.000000  -0.014041  -0.000000
   46  F  2 YZ   -0.000000   0.000000  -0.014041   0.000000  -0.040842

                     41         42         43         44         45
                    6.2026     6.4524     8.1497     8.3367    73.6999
                     A          A          A          A          A   
    1  F  1  S   -0.000000  -0.004209  -0.136287  -0.137191  -1.697196
    2  F  1  S   -0.000000  -0.022880  -0.512841  -0.512218   1.967873
    3  F  1  X   -0.889542  -0.000000  -0.000000   0.000000   0.000000
    4  F  1  Y    0.000000  -0.000000  -0.000000   0.000000   0.000000
    5  F  1  Z   -0.000000  -0.889412  -0.010012   0.047671  -0.002074
    6  F  1  S   -0.000000   0.056174   2.011323   1.929035  -0.816623
    7  F  1  X    1.077616  -0.000000  -0.000000   0.000000   0.000000
    8  F  1  Y   -0.000000  -0.000000  -0.000000   0.000000   0.000000
    9  F  1  Z   -0.000000   1.046945  -0.038737  -0.064893   0.014936
   10  F  1  S   -0.000000  -0.022061   0.827721   1.386709  -0.208921
   11  F  1  X   -0.696974  -0.000000  -0.000000   0.000000   0.000000
   12  F  1  Y    0.000000  -0.000000  -0.000000   0.000000   0.000000
   13  F  1  Z   -0.000000  -0.649464   0.032122   0.338454  -0.010867
   14  F  1  S   -0.000000  -0.004344  -0.264081  -1.828791   0.068886
   15  F  1  X    0.354683  -0.000000  -0.000000   0.000000   0.000000
   16  F  1  Y   -0.000000  -0.000000  -0.000000   0.000000   0.000000
   17  F  1  Z   -0.000000   0.186596  -0.058922  -0.698183   0.017342
   18  F  1 XX   -0.000000  -0.112712  -1.135542  -1.162023   0.395422
   19  F  1 YY   -0.000000  -0.112712  -1.135542  -1.162023   0.395422
   20  F  1 ZZ   -0.000000   0.058551  -1.101763  -1.088354   0.394736
   21  F  1 XY   -0.000000  -0.000000  -0.000000   0.000000   0.000000
   22  F  1 XZ   -0.040842  -0.000000  -0.000000   0.000000   0.000000
   23  F  1 YZ    0.000000  -0.000000  -0.000000   0.000000   0.000000
   24  F  2  S   -0.000000   0.004209  -0.136300   0.137179  -1.697380
   25  F  2  S   -0.000000   0.022882  -0.512889   0.512171   1.968086
   26  F  2  X    0.889519  -0.000000  -0.000000   0.000000   0.000000
   27  F  2  Y   -0.000000  -0.000000  -0.000000   0.000000   0.000000
   28  F  2  Z   -0.000000  -0.889404   0.010005   0.047673   0.002074
   29  F  2  S   -0.000000  -0.056180   2.011506  -1.928851  -0.816710
   30  F  2  X   -1.077589  -0.000000  -0.000000   0.000000   0.000000
   31  F  2  Y    0.000000  -0.000000  -0.000000   0.000000   0.000000
   32  F  2  Z   -0.000000   1.046934   0.038745  -0.064892  -0.014936
   33  F  2  S   -0.000000   0.022058   0.827824  -1.386629  -0.208958
   34  F  2  X    0.696960  -0.000000  -0.000000   0.000000   0.000000
   35  F  2  Y   -0.000000  -0.000000  -0.000000   0.000000   0.000000
   36  F  2  Z   -0.000000  -0.649457  -0.032151   0.338453   0.010876
   37  F  2  S   -0.000000   0.004344  -0.264129   1.828765   0.068935
   38  F  2  X   -0.354678  -0.000000  -0.000000   0.000000   0.000000
   39  F  2  Y    0.000000  -0.000000  -0.000000   0.000000   0.000000
   40  F  2  Z   -0.000000   0.186592   0.058933  -0.698177  -0.017361
   41  F  2 XX   -0.000000   0.112717  -1.135647   1.161919   0.395466
   42  F  2 YY   -0.000000   0.112717  -1.135647   1.161919   0.395466
   43  F  2 ZZ   -0.000000  -0.058548  -1.101863   1.088251   0.394778
   44  F  2 XY   -0.000000  -0.000000  -0.000000   0.000000   0.000000
   45  F  2 XZ   -0.040842  -0.000000  -0.000000   0.000000   0.000000
   46  F  2 YZ    0.000000  -0.000000  -0.000000   0.000000   0.000000

                     46
                   73.8117
                     A   
    1  F  1  S   -1.698212
    2  F  1  S    1.971612
    3  F  1  X   -0.000000
    4  F  1  Y   -0.000000
    5  F  1  Z   -0.003376
    6  F  1  S   -0.804868
    7  F  1  X   -0.000000
    8  F  1  Y   -0.000000
    9  F  1  Z    0.006372
   10  F  1  S   -0.350057
   11  F  1  X   -0.000000
   12  F  1  Y   -0.000000
   13  F  1  Z   -0.078558
   14  F  1  S    0.487917
   15  F  1  X   -0.000000
   16  F  1  Y   -0.000000
   17  F  1  Z    0.185500
   18  F  1 XX    0.407362
   19  F  1 YY    0.407362
   20  F  1 ZZ    0.392968
   21  F  1 XY   -0.000000
   22  F  1 XZ   -0.000000
   23  F  1 YZ   -0.000000
   24  F  2  S    1.698028
   25  F  2  S   -1.971399
   26  F  2  X   -0.000000
   27  F  2  Y   -0.000000
   28  F  2  Z   -0.003376
   29  F  2  S    0.804779
   30  F  2  X   -0.000000
   31  F  2  Y   -0.000000
   32  F  2  Z    0.006370
   33  F  2  S    0.350034
   34  F  2  X   -0.000000
   35  F  2  Y   -0.000000
   36  F  2  Z   -0.078557
   37  F  2  S   -0.487910
   38  F  2  X   -0.000000
   39  F  2  Y   -0.000000
   40  F  2  Z    0.185498
   41  F  2 XX   -0.407319
   42  F  2 YY   -0.407319
   43  F  2 ZZ   -0.392925
   44  F  2 XY   -0.000000
   45  F  2 XZ   -0.000000
   46  F  2 YZ   -0.000000
 ...... END OF UHF CALCULATION ......
 STEP CPU TIME =     1.46 TOTAL CPU TIME =          1.5 (      0.0 MIN)
 TOTAL WALL CLOCK TIME=          1.5 SECONDS, CPU UTILIZATION IS   100.00%

     ---------------------------------------------------------------------
     PROPERTIES FOR THE B3LYP    DFT FUNCTIONAL (UHF  TYPE) DENSITY MATRIX
     ---------------------------------------------------------------------

          -----------------
          ENERGY COMPONENTS
          -----------------

         WAVEFUNCTION NORMALIZATION =       1.0000000000

                ONE ELECTRON ENERGY =    -338.4544057536
                TWO ELECTRON ENERGY =     108.5904532559
           NUCLEAR REPULSION ENERGY =      30.3586353059
                                      ------------------
                       TOTAL ENERGY =    -199.5053171917

 ELECTRON-ELECTRON POTENTIAL ENERGY =     108.5904532559
  NUCLEUS-ELECTRON POTENTIAL ENERGY =    -537.4033734034
   NUCLEUS-NUCLEUS POTENTIAL ENERGY =      30.3586353059
                                      ------------------
             TOTAL POTENTIAL ENERGY =    -398.4542848416
               TOTAL KINETIC ENERGY =     198.9489676498
                 VIRIAL RATIO (V/T) =       2.0027964435

          ---------------------------------------
          MULLIKEN AND LOWDIN POPULATION ANALYSES
          ---------------------------------------

     ATOMIC MULLIKEN POPULATION IN EACH MOLECULAR ORBITAL
        ALPHA ORBITALS

                      1          2          3          4          5

                  1.000000   1.000000   1.000000   1.000000   1.000000

    1             0.506306   0.493694   0.499983   0.500000   0.500001
    2             0.493694   0.506306   0.500017   0.500000   0.499999

                      6          7          8          9

                  1.000000   1.000000   1.000000   1.000000

    1             0.500001   0.500001   0.499999   0.499999
    2             0.499999   0.499999   0.500001   0.500001

     ATOMIC MULLIKEN POPULATION IN EACH MOLECULAR ORBITAL
         BETA ORBITALS

                      1          2          3          4          5

                  1.000000   1.000000   1.000000   1.000000   1.000000

    1             0.506306   0.493694   0.499983   0.500000   0.500001
    2             0.493694   0.506306   0.500017   0.500000   0.499999

                      6          7          8          9

                  1.000000   1.000000   1.000000   1.000000

    1             0.500001   0.500001   0.499999   0.499999
    2             0.499999   0.499999   0.500001   0.500001

     ATOMIC SPIN POPULATION (ALPHA MINUS BETA)
       ATOM         MULL.POP.                    LOW.POP.
    1 F            -0.000000                    -0.000000
    2 F             0.000000                     0.000000


          ********* ALL ELECTRONS ********

               ----- POPULATIONS IN EACH AO -----
                             MULLIKEN      LOWDIN
              1  F  1  S      1.07816     1.02813
              2  F  1  S      0.91094     0.93673
              3  F  1  X      0.46463     0.47189
              4  F  1  Y      0.46463     0.47189
              5  F  1  Z      0.21736     0.21878
              6  F  1  S      1.15694     0.64649
              7  F  1  X      0.88121     0.87534
              8  F  1  Y      0.88121     0.87534
              9  F  1  Z      0.48099     0.45740
             10  F  1  S      0.89580     0.48262
             11  F  1  X      0.61253     0.55501
             12  F  1  Y      0.61253     0.55501
             13  F  1  Z      0.30775     0.35666
             14  F  1  S     -0.04878     0.12733
             15  F  1  X      0.04076     0.09646
             16  F  1  Y      0.04076     0.09646
             17  F  1  Z      0.02324     0.07056
             18  F  1 XX     -0.01396     0.22370
             19  F  1 YY     -0.01396     0.22370
             20  F  1 ZZ      0.00550     0.22788
             21  F  1 XY      0.00000     0.00000
             22  F  1 XZ      0.00088     0.00130
             23  F  1 YZ      0.00088     0.00130
             24  F  2  S      1.07816     1.02813
             25  F  2  S      0.91094     0.93673
             26  F  2  X      0.46463     0.47189
             27  F  2  Y      0.46463     0.47189
             28  F  2  Z      0.21736     0.21879
             29  F  2  S      1.15694     0.64649
             30  F  2  X      0.88121     0.87534
             31  F  2  Y      0.88121     0.87534
             32  F  2  Z      0.48099     0.45740
             33  F  2  S      0.89579     0.48262
             34  F  2  X      0.61253     0.55502
             35  F  2  Y      0.61253     0.55502
             36  F  2  Z      0.30775     0.35666
             37  F  2  S     -0.04874     0.12733
             38  F  2  X      0.04076     0.09646
             39  F  2  Y      0.04076     0.09646
             40  F  2  Z      0.02326     0.07057
             41  F  2 XX     -0.01396     0.22370
             42  F  2 YY     -0.01396     0.22370
             43  F  2 ZZ      0.00550     0.22788
             44  F  2 XY      0.00000     0.00000
             45  F  2 XZ      0.00088     0.00130
             46  F  2 YZ      0.00088     0.00130

          ----- MULLIKEN ATOMIC OVERLAP POPULATIONS -----
          (OFF-DIAGONAL ELEMENTS NEED TO BE MULTIPLIED BY 2)

             1           2

    1    8.9012777
    2    0.0986916   8.9013391

          TOTAL MULLIKEN AND LOWDIN ATOMIC POPULATIONS
       ATOM         MULL.POP.    CHARGE          LOW.POP.     CHARGE
    1 F             8.999969    0.000031         8.999997    0.000003
    2 F             9.000031   -0.000031         9.000003   -0.000003

          -------------------------------
          BOND ORDER AND VALENCE ANALYSIS     BOND ORDER THRESHOLD=0.050
          -------------------------------

                   BOND                       BOND                       BOND
  ATOM PAIR DIST  ORDER      ATOM PAIR DIST  ORDER      ATOM PAIR DIST  ORDER
    1   2  1.412  1.069

                       TOTAL       BONDED        FREE
      ATOM            VALENCE     VALENCE     VALENCE
    1 F                 1.069       1.069       0.000
    2 F                 1.069       1.069      -0.000

          -----------------------------------------
          ATOMIC SPIN DENSITY AT THE NUCLEUS (A.U.)
          -----------------------------------------
                            SPIN DENS    ALPHA DENS     BETA DENS
    1  F            9.0    -0.0000000     213.69435     213.69435
    2  F            9.0    -0.0000000     213.69436     213.69436

          ---------------------
          ELECTROSTATIC MOMENTS
          ---------------------

 POINT   1           X           Y           Z (BOHR)    CHARGE
                 0.000000    0.000000    0.000000        0.00 (A.U.)
         DX          DY          DZ         /D/  (DEBYE)
     0.000000    0.000000   -0.000007    0.000007
 ...... END OF PROPERTY EVALUATION ......
 STEP CPU TIME =     0.00 TOTAL CPU TIME =          1.5 (      0.0 MIN)
 TOTAL WALL CLOCK TIME=          1.5 SECONDS, CPU UTILIZATION IS    99.33%
               580000  WORDS OF DYNAMIC MEMORY USED
 EXECUTION OF GAMESS TERMINATED NORMALLY Fri Dec 13 16:16:22 2019
 DDI: 263640 bytes (0.3 MB / 0 MWords) used by master data server.

 ----------------------------------------
 CPU timing information for all processes
 ========================================
 0: 1.484 + 0.12 = 1.496
 ----------------------------------------
 ddikick.x: exited gracefully.
----- accounting info -----
Files used on the master node amlan-PT-3420 were:
-rw-rw-r-- 1 akroy akroy   71201 Dec 13 16:16 /tmp/f2_b3lyp.dat
-rw-rw-r-- 1 akroy akroy     306 Dec 13 16:16 /tmp/f2_b3lyp.F05
-rw-rw-r-- 1 akroy akroy 1800160 Dec 13 16:16 /tmp/f2_b3lyp.F08
-rw-rw-r-- 1 akroy akroy 1930480 Dec 13 16:16 /tmp/f2_b3lyp.F10
Fri Dec 13 16:16:25 IST 2019
0.0u 0.0s 0:04.57 0.4% 0+0k 0+24io 0pf+0w
