----- GAMESS execution script 'rungms' -----
This job is running on host amlan-PT-3420
under operating system Linux at Thu Jun 13 02:05:41 IST 2019
Available scratch disk space (Kbyte units) at beginning of the job is
Filesystem      1K-blocks     Used  Available Use% Mounted on
/dev/sda3      1916812448 56947544 1762473392   4% /
GAMESS temporary binary files will be written to /tmp
GAMESS supplementary output files will be written to /tmp
Copying input file be_atom_6_3112df2pd_all.inp to your run's scratch directory...

 Distributed Data Interface kickoff program.
 Initiating 1 compute processes on 1 nodes to run the following command:
 /home/akroy/gamess/gamess.01.x be_atom_6_3112df2pd_all 

          ******************************************************
          *         GAMESS VERSION = 30 SEP 2018 (R3)         *
          *             FROM IOWA STATE UNIVERSITY             *
          * M.W.SCHMIDT, K.K.BALDRIDGE, J.A.BOATZ, S.T.ELBERT, *
          *   M.S.GORDON, J.H.JENSEN, S.KOSEKI, N.MATSUNAGA,   *
          *          K.A.NGUYEN, S.J.SU, T.L.WINDUS,           *
          *       TOGETHER WITH M.DUPUIS, J.A.MONTGOMERY       *
          *         J.COMPUT.CHEM.  14, 1347-1363(1993)        *
          **************** 64 BIT LINUX VERSION ****************

  SINCE 1993, STUDENTS AND POSTDOCS WORKING AT IOWA STATE UNIVERSITY
  AND ALSO IN THEIR VARIOUS JOBS AFTER LEAVING ISU HAVE MADE IMPORTANT
  CONTRIBUTIONS TO THE CODE:
     IVANA ADAMOVIC, CHRISTINE AIKENS, YURI ALEXEEV, POOJA ARORA,
     ANDREY ASADCHEV, ROB BELL, PRADIPTA BANDYOPADHYAY, JONATHAN BENTZ,
     BRETT BODE, KURT BRORSEN, CALEB CARLIN, GALINA CHABAN, WEI CHEN,
     CHEOL HO CHOI, PAUL DAY, ALBERT DEFUSCO, NUWAN DESILVA, TIM DUDLEY,
     DMITRI FEDOROV, ALEX FINDLATER, GRAHAM FLETCHER, MARK FREITAG,
     KURT GLAESEMANN, ANASTASIA GUNINA,
     DAN KEMP, GRANT MERRILL, NORIYUKI MINEZAWA, JONATHAN MULLIN,
     TAKESHI NAGATA, SEAN NEDD, HEATHER NETZLOFF, BOSILJKA NJEGIC, RYAN OLSON,
     MIKE PAK, BUU PHAM,
     SPENCER PRUITT, LUKE ROSKOP, JIM SHOEMAKER, LYUDMILA SLIPCHENKO,
     TONY SMITH, SAROM SOK LEANG, JIE SONG, TETSUYA TAKETSUGU, SIMON WEBB,
     PENG XU, SOOHAENG YOO, FEDERICO ZAHARIEV

  ADDITIONAL CODE HAS BEEN PROVIDED BY COLLABORATORS IN OTHER GROUPS:
     IOWA STATE UNIVERSITY:
          JOE IVANIC, AARON WEST, LAIMUTIS BYTAUTAS, KLAUS RUEDENBERG
     UNIVERSITY OF TOKYO: KIMIHIKO HIRAO, TAKAHITO NAKAJIMA,
          TAKAO TSUNEDA, MUNEAKI KAMIYA, SUSUMU YANAGISAWA,
          KIYOSHI YAGI, MAHITO CHIBA, SEIKEN TOKURA, NAOAKI KAWAKAMI
     UNIVERSITY OF AARHUS: FRANK JENSEN
     UNIVERSITY OF IOWA: VISVALDAS KAIRYS, HUI LI
     NATIONAL INST. OF STANDARDS AND TECHNOLOGY: WALT STEVENS, DAVID GARMER
     UNIVERSITY OF PISA: BENEDETTA MENNUCCI, JACOPO TOMASI
     UNIVERSITY OF MEMPHIS: HENRY KURTZ, PRAKASHAN KORAMBATH
     UNIVERSITY OF ALBERTA: TOBY ZENG, MARIUSZ KLOBUKOWSKI
     UNIVERSITY OF NEW ENGLAND: MARK SPACKMAN
     MIE UNIVERSITY: HIROAKI UMEDA
     NAT. INST. OF ADVANCED INDUSTRIAL SCIENCE AND TECHNOLOGY: KAZUO KITAURA
     MICHIGAN STATE UNIVERSITY:
          KAROL KOWALSKI, MARTA WLOCH, JEFFREY GOUR, JESSE LUTZ,
          WEI LI, JUN SHEN, J. EMILIANO DEUSTUA, PIOTR PIECUCH
     UNIVERSITY OF MINNESOTA:
          YINAN SHU
     UNIVERSITY OF SILESIA: MONIKA MUSIAL, STANISLAW KUCHARSKI
     FACULTES UNIVERSITAIRES NOTRE-DAME DE LA PAIX:
          OLIVIER QUINET, BENOIT CHAMPAGNE
     UNIVERSITY OF CALIFORNIA - SANTA BARBARA: BERNARD KIRTMAN
     INSTITUTE FOR MOLECULAR SCIENCE:
          KAZUYA ISHIMURA, MICHIO KATOUDA, AND SHIGERU NAGASE
     UNIVERSITY OF NOTRE DAME: ANNA POMOGAEVA, DAN CHIPMAN
     KYUSHU UNIVERSITY:
          HARUYUKI NAKANO,
          FENG LONG GU, JACEK KORCHOWIEC, MARCIN MAKOWSKI, AND YURIKO AOKI,
          HIROTOSHI MORI AND EISAKU MIYOSHI
     PENNSYLVANIA STATE UNIVERSITY:
          TZVETELIN IORDANOV, CHET SWALINA, JONATHAN SKONE,
          SHARON HAMMES-SCHIFFER
     WASEDA UNIVERSITY:
          MASATO KOBAYASHI, TOMOKO AKAMA, TSUGUKI TOUMA,
          TAKESHI YOSHIKAWA, YASUHIRO IKABATA, JUNJI SEINO,
          YUYA NAKAJIMA, HIROMI NAKAI
     NANJING UNIVERSITY: SHUHUA LI
     UNIVERSITY OF NEBRASKA:
          PEIFENG SU, DEJUN SI, NANDUN THELLAMUREGE, YALI WANG, HUI LI
     UNIVERSITY OF ZURICH: ROBERTO PEVERATI, KIM BALDRIDGE
     N. COPERNICUS UNIVERSITY AND JACKSON STATE UNIVERSITY:
          MARIA BARYSZ
     UNIVERSITY OF COPENHAGEN: Jimmy Kromann, CASPER STEINMANN
     TOKYO INSTITUTE OF TECHNOLOGY: HIROYA NAKATA
     NAGOYA UNIVERSITY: YOSHIO NISHIMOTO, STEPHAN IRLE
     MOSCOW STATE UNIVERSITY: VLADIMIR MIRONOV

 EXECUTION OF GAMESS BEGUN Thu Jun 13 02:05:41 2019

            ECHO OF THE FIRST FEW INPUT CARDS -
 INPUT CARD> $CONTRL SCFTYP=RHF COORD=CART MULT=1 RUNTYP=ENERGY  $END                       
 INPUT CARD> $SYSTEM TIMLIM=2000 $END                                                       
 INPUT CARD> $DFT METHOD=GRID DFTTYP=NONE $END                                              
 INPUT CARD> $BASIS EXTFIL=.TRUE. GBASIS=6311G2DF $END                                      
 INPUT CARD> $GUESS GUESS=HUCKEL $END                                                       
 INPUT CARD> $DATA                                                                          
 INPUT CARD>BE                                                                              
 INPUT CARD>C1                                                                              
 INPUT CARD>BE   4.0   0.0000   0.0000   0.0000                                             
 INPUT CARD> $END                                                                           
 INPUT CARD>                                                                                
    1000000 WORDS OF MEMORY AVAILABLE


                    * * * WARNING * * *
 OLD KEYWORD COORD=CART SELECTED, AUTOMATICALLY CHANGED TO COORD=PRINAXIS.
 YOUR MOLECULE'S COORDINATES WILL BE CHANGED TO PRINCIPAL AXES BY
   A) TRANSLATION TO THE CENTER OF MASS, THEN
   B) ROTATION TO HAVE A DIAGONAL MOMENT OF INERTIA TENSOR.

 HOWEVER, NOTHING ELSE IN YOUR INPUT WILL BE ROTATED IN THE SAME WAY,
 SO IF YOU HAVE A $VEC, $VIB, $GRAD, $HESS, EFP PARTICLE COORDINATES,
 OR ANYTHING ELSE THAT DEPENDS ON THE INITIAL ORIENTATION, THAT DATA
 WILL NOT BE USED CORRECTLY IN THIS RUN.

 THE PURPOSE OF COORD=PRINAXIS IS TO BE USED ONCE, ONLY AT THE VERY
 BEGINNING OF A SERIES OF COMPUTATIONS, PERHAPS TO FIND THE SYMMETRY
 UNIQUE ATOMS FROM AN ARBITRARY INITIAL ORIENTATION.

 AFTER THE FIRST RUN, YOU SHOULD USE ONLY COORD=UNIQUE, TO ENSURE THAT
 THE COORDINATES WHICH YOU READ IN ARE THE COORDINATES THAT ARE USED.


     $BASIS REQUESTS READING THE "6311G2DF" BASIS SET FROM AN EXTERNAL FILE


     RUN TITLE
     ---------
 BE                                                                              

 THE POINT GROUP OF THE MOLECULE IS C1      
 THE ORDER OF THE PRINCIPAL AXIS IS     0

 THE MOMENTS OF INERTIA ARE (AMU-ANGSTROM**2)
 IXX=     0.000   IYY=     0.000   IZZ=     0.000

 THE EXTERNAL BASIS SET FILE BEING READ IS
     "/home/akroy/gamess/EXTFILE.txt"

 ATOM      ATOMIC                      COORDINATES (BOHR)
           CHARGE         X                   Y                   Z
 BE          4.0     0.0000000000        0.0000000000        0.0000000000

          INTERNUCLEAR DISTANCES (ANGS.)
          ------------------------------

                1 BE    

   1 BE      0.0000000  

  * ... LESS THAN  3.000


     ATOMIC BASIS SET
     ----------------
 THE CONTRACTED PRIMITIVE FUNCTIONS HAVE BEEN UNNORMALIZED
 THE CONTRACTED BASIS FUNCTIONS ARE NOW NORMALIZED TO UNITY

  SHELL TYPE  PRIMITIVE        EXPONENT          CONTRACTION COEFFICIENT(S)

 BE        

      1   S       1          1682.8000000    0.002285740532
      1   S       2           251.7150000    0.017593804095
      1   S       3            57.4116000    0.086331520094
      1   S       4            16.5171000    0.281835065598
      1   S       5             4.8536400    0.640594149100
      1   S       6             0.6268630    0.144467033625

      2   L       7             8.3093800    0.108621032318    0.036134403234
      2   L       8             1.7407500    0.927301275900    0.216958019416
      2   L       9             0.4858160   -0.002971690884    0.841839075337

      3   L      10             0.1636130    1.000000000000    1.000000000000

      4   L      11             0.0567285    1.000000000000    1.000000000000

      5   D      12             0.5100000    1.000000000000

      6   D      13             0.1275000    1.000000000000

      7   F      14             0.2600000    1.000000000000

 TOTAL NUMBER OF BASIS SET SHELLS             =    7
 NUMBER OF CARTESIAN GAUSSIAN BASIS FUNCTIONS =   35
 NUMBER OF ELECTRONS                          =    4
 CHARGE OF MOLECULE                           =    0
 SPIN MULTIPLICITY                            =    1
 NUMBER OF OCCUPIED ORBITALS (ALPHA)          =    2
 NUMBER OF OCCUPIED ORBITALS (BETA )          =    2
 TOTAL NUMBER OF ATOMS                        =    1
 THE NUCLEAR REPULSION ENERGY IS        0.0000000000

 THIS MOLECULE IS RECOGNIZED AS BEING LINEAR,
 ORBITAL LZ DEGENERACY TOLERANCE ETOLLZ= 1.00E-06

     $CONTRL OPTIONS
     ---------------
 SCFTYP=RHF          RUNTYP=ENERGY       EXETYP=RUN     
 MPLEVL=       0     CITYP =NONE         CCTYP =NONE         VBTYP =NONE    
 DFTTYP=NONE         TDDFT =NONE    
 MULT  =       1     ICHARG=       0     NZVAR =       0     COORD =PRINAXIS
 PP    =NONE         RELWFN=NONE         LOCAL =NONE         NUMGRD=       F
 ISPHER=      -1     NOSYM =       0     MAXIT =      30     UNITS =ANGS    
 PLTORB=       F     MOLPLT=       F     AIMPAC=       F     FRIEND=        
 NPRINT=       7     IREST =       0     GEOM  =INPUT   
 NORMF =       0     NORMP =       0     ITOL  =      20     ICUT  =       9
 INTTYP=BEST         GRDTYP=BEST         QMTTOL= 1.0E-06

     $SYSTEM OPTIONS
     ---------------
  REPLICATED MEMORY=     1000000 WORDS (ON EVERY NODE).
 DISTRIBUTED MEMDDI=           0 MILLION WORDS IN AGGREGATE,
 MEMDDI DISTRIBUTED OVER   1 PROCESSORS IS           0 WORDS/PROCESSOR.
 TOTAL MEMORY REQUESTED ON EACH PROCESSOR=     1000000 WORDS.
 TIMLIM=        2000.00 MINUTES, OR       1.4 DAYS.
 PARALL= F  BALTYP=  DLB     KDIAG=    0  COREFL= F
 MXSEQ2=     300 MXSEQ3=     150  mem10=         0

          ----------------
          PROPERTIES INPUT
          ----------------

     MOMENTS            FIELD           POTENTIAL          DENSITY
 IEMOM =       1   IEFLD =       0   IEPOT =       0   IEDEN =       0
 WHERE =COMASS     WHERE =NUCLEI     WHERE =NUCLEI     WHERE =NUCLEI  
 OUTPUT=BOTH       OUTPUT=BOTH       OUTPUT=BOTH       OUTPUT=BOTH    
 IEMINT=       0   IEFINT=       0                     IEDINT=       0
                                                       MORB  =       0
          EXTRAPOLATION IN EFFECT
          SOSCF IN EFFECT
 ORBITAL PRINTING OPTION: NPREO=     1    35     2     1

     -------------------------------
     INTEGRAL TRANSFORMATION OPTIONS
     -------------------------------
     NWORD  =            0
     CUTOFF = 1.0E-09     MPTRAN =       0
     DIRTRF =       F     AOINTS =DUP     

          ----------------------
          INTEGRAL INPUT OPTIONS
          ----------------------
 NOPK  =       1 NORDER=       0 SCHWRZ=       F

     ------------------------------------------
     THE POINT GROUP IS C1 , NAXIS= 0, ORDER= 1
     ------------------------------------------

     DIMENSIONS OF THE SYMMETRY SUBSPACES ARE
 A   =   35

 ..... DONE SETTING UP THE RUN .....
 STEP CPU TIME =     0.01 TOTAL CPU TIME =          0.0 (      0.0 MIN)
 TOTAL WALL CLOCK TIME=          0.0 SECONDS, CPU UTILIZATION IS    50.00%

          ********************
          1 ELECTRON INTEGRALS
          ********************
 ...... END OF ONE-ELECTRON INTEGRALS ......
 STEP CPU TIME =     0.00 TOTAL CPU TIME =          0.0 (      0.0 MIN)
 TOTAL WALL CLOCK TIME=          0.0 SECONDS, CPU UTILIZATION IS    50.00%

          -------------
          GUESS OPTIONS
          -------------
          GUESS =HUCKEL            NORB  =       0          NORDER=       0
          MIX   =       F          PRTMO =       F          PUNMO =       F
          TOLZ  = 1.0E-08          TOLE  = 1.0E-05
          SYMDEN=       F          PURIFY=       F

 INITIAL GUESS ORBITALS GENERATED BY HUCKEL   ROUTINE.
 HUCKEL GUESS REQUIRES      9804 WORDS.

 SYMMETRIES FOR INITIAL GUESS ORBITALS FOLLOW.   BOTH SET(S).
     2 ORBITALS ARE OCCUPIED (    1 CORE ORBITALS).
     2=A        3=A        4=A        5=A        6=A        7=A        8=A   
     9=A       10=A       11=A       12=A   
 ...... END OF INITIAL ORBITAL SELECTION ......
 STEP CPU TIME =     0.00 TOTAL CPU TIME =          0.0 (      0.0 MIN)
 TOTAL WALL CLOCK TIME=          0.0 SECONDS, CPU UTILIZATION IS    50.00%

                    ----------------------
                    AO INTEGRAL TECHNOLOGY
                    ----------------------
     S,P,L SHELL ROTATED AXIS INTEGRALS, REPROGRAMMED BY
        KAZUYA ISHIMURA (IMS) AND JOSE SIERRA (SYNSTAR).
     S,P,D,L SHELL ROTATED AXIS INTEGRALS PROGRAMMED BY
        KAZUYA ISHIMURA (INSTITUTE FOR MOLECULAR SCIENCE).
     S,P,D,F,G SHELL TO TOTAL QUARTET ANGULAR MOMENTUM SUM 5,
        ERIC PROGRAM BY GRAHAM FLETCHER (ELORET AND NASA ADVANCED
        SUPERCOMPUTING DIVISION, AMES RESEARCH CENTER).
     S,P,D,F,G,L SHELL GENERAL RYS QUADRATURE PROGRAMMED BY
        MICHEL DUPUIS (PACIFIC NORTHWEST NATIONAL LABORATORY).

          --------------------
          2 ELECTRON INTEGRALS
          --------------------

 THE -PK- OPTION IS OFF, THE INTEGRALS ARE NOT IN SUPERMATRIX FORM.
 STORING   15000 INTEGRALS/RECORD ON DISK, USING 12 BYTES/INTEGRAL.
 TWO ELECTRON INTEGRAL EVALUATION REQUIRES   99128 WORDS OF MEMORY.
 II,JST,KST,LST =  1  1  1  1 NREC =         1 INTLOC =    1
 II,JST,KST,LST =  2  1  1  1 NREC =         1 INTLOC =    2
 II,JST,KST,LST =  3  1  1  1 NREC =         1 INTLOC =   34
 II,JST,KST,LST =  4  1  1  1 NREC =         1 INTLOC =  214
 II,JST,KST,LST =  5  1  1  1 NREC =         1 INTLOC =  776
 II,JST,KST,LST =  6  1  1  1 NREC =         1 INTLOC = 2864
 II,JST,KST,LST =  7  1  1  1 NREC =         1 INTLOC = 7967
 TOTAL NUMBER OF NONZERO TWO-ELECTRON INTEGRALS =               27193
          2 INTEGRAL RECORDS WERE STORED ON DISK FILE  8.
  ...... END OF TWO-ELECTRON INTEGRALS .....
 STEP CPU TIME =     0.02 TOTAL CPU TIME =          0.0 (      0.0 MIN)
 TOTAL WALL CLOCK TIME=          0.0 SECONDS, CPU UTILIZATION IS    75.00%

          --------------------------
                 RHF SCF CALCULATION
          --------------------------

     NUCLEAR ENERGY =         0.0000000000
     MAXIT =   30     NPUNCH=    2
     EXTRAP=T  DAMP=F  SHIFT=F  RSTRCT=F  DIIS=F  DEM=F  SOSCF=T
     DENSITY MATRIX CONV=  1.00E-05
     SOSCF WILL OPTIMIZE      66 ORBITAL ROTATIONS, SOGTOL=   0.250
     MEMORY REQUIRED FOR RHF ITERS=     39329 WORDS.

 ITER EX DEM     TOTAL ENERGY        E CHANGE  DENSITY CHANGE     ORB. GRAD
   1  0  0      -14.5466581391   -14.5466581391   0.192280992   0.000000000
          ---------------START SECOND ORDER SCF---------------
   2  1  0      -14.5713812686    -0.0247231295   0.069748949   0.008493777
   3  2  0      -14.5719220820    -0.0005408134   0.031316402   0.001976982
   4  3  0      -14.5719531611    -0.0000310791   0.003051995   0.000151794
   5  4  0      -14.5719532839    -0.0000001227   0.000870343   0.000040307
   6  5  0      -14.5719532904    -0.0000000065   0.000014755   0.000002805
   7  6  0      -14.5719532904    -0.0000000000   0.000000763   0.000000320
   8  7  0      -14.5719532904    -0.0000000000   0.000000286   0.000000011

          -----------------
          DENSITY CONVERGED
          -----------------
     TIME TO FORM FOCK OPERATORS=       0.0 SECONDS (       0.0 SEC/ITER)
     TIME TO SOLVE SCF EQUATIONS=       0.0 SECONDS (       0.0 SEC/ITER)

 FINAL RHF ENERGY IS      -14.5719532904 AFTER   8 ITERATIONS

 LZ VALUE ANALYSIS FOR THE MOS
 ----------------------------------------
 MO     1 (    1) HAS LZ(WEIGHT)= 0.00(100.0%) 
 MO     2 (    2) HAS LZ(WEIGHT)= 0.00(100.0%) 
 MO     3 (    3) HAS LZ(WEIGHT)=-1.00( 14.9%)  0.00( 70.2%)  1.00( 14.9%) 
 MO     4 (    3) HAS LZ(WEIGHT)=-1.00( 35.7%)  0.00( 28.6%)  1.00( 35.7%) 
 MO     5 (    3) HAS LZ(WEIGHT)=-1.00( 49.4%)  0.00(  1.2%)  1.00( 49.4%) 
 MO     6 (    4) HAS LZ(WEIGHT)= 0.00(100.0%) 
 MO     7 (    5) HAS LZ(WEIGHT)=-1.00( 47.1%) -0.00(  5.7%)  1.00( 47.1%) 
 MO     8 (    5) HAS LZ(WEIGHT)=-1.00( 34.1%) -0.00( 31.8%)  1.00( 34.1%) 
 MO     9 (    5) HAS LZ(WEIGHT)=-1.00( 18.8%) -0.00( 62.5%)  1.00( 18.8%) 
 MO    10 (    6) HAS LZ(WEIGHT)=-2.00( 13.9%) -1.00( 35.1%)  0.00(  2.1%)  1.00( 35.1%)  2.00( 13.9%) 
 MO    11 (    6) HAS LZ(WEIGHT)=-2.00( 29.0%) -1.00(  6.2%)  0.00( 29.5%)  1.00(  6.2%)  2.00( 29.0%) 
 MO    12 (    6) HAS LZ(WEIGHT)=-2.00(  7.7%) -1.00( 42.3%)  1.00( 42.3%)  2.00(  7.7%) 
 MO    13 (    6) HAS LZ(WEIGHT)=-2.00(  9.6%) -1.00(  8.7%)  0.00( 63.4%)  1.00(  8.7%)  2.00(  9.6%) 
 MO    14 (    6) HAS LZ(WEIGHT)=-2.00( 39.9%) -1.00(  7.7%)  0.00(  4.9%)  1.00(  7.7%)  2.00( 39.9%) 
 MO    15 (    7) HAS LZ(WEIGHT)= 0.00(100.0%) 
 MO    16 (    8) HAS LZ(WEIGHT)=-2.00( 48.8%)  2.00( 48.8%) 
 MO    17 (    8) HAS LZ(WEIGHT)=-3.00( 10.5%) -1.00( 15.3%)  0.00( 46.9%)  1.00( 15.3%)  3.00( 10.5%) 
 MO    18 (    8) HAS LZ(WEIGHT)=-3.00( 17.5%) -1.00( 31.8%)  1.00( 31.8%)  3.00( 17.5%) 
 MO    19 (    8) HAS LZ(WEIGHT)=-3.00(  8.5%) -2.00( 38.3%) -1.00(  2.6%)  0.00(  1.2%)  1.00(  2.6%)  2.00( 38.3%)  3.00(  8.5%) 
 MO    20 (    8) HAS LZ(WEIGHT)=-3.00(  3.5%) -1.00( 25.4%)  0.00( 41.6%)  1.00( 25.4%)  3.00(  3.5%) 
 MO    21 (    8) HAS LZ(WEIGHT)=-3.00( 32.4%) -2.00(  9.3%) -1.00(  7.6%)  0.00(  1.5%)  1.00(  7.6%)  2.00(  9.3%)  3.00( 32.4%) 
 MO    22 (    8) HAS LZ(WEIGHT)=-3.00( 27.3%) -2.00(  1.9%) -1.00( 16.5%)  0.00(  8.6%)  1.00( 16.5%)  2.00(  1.9%)  3.00( 27.3%) 
 MO    23 (    9) HAS LZ(WEIGHT)=-1.00( 37.8%) -0.00( 24.5%)  1.00( 37.8%) 
 MO    24 (    9) HAS LZ(WEIGHT)=-1.00( 12.4%) -0.00( 75.2%)  1.00( 12.4%) 
 MO    25 (    9) HAS LZ(WEIGHT)=-1.00( 49.8%)  1.00( 49.8%) 
 MO    26 (   10) HAS LZ(WEIGHT)=-2.00( 24.1%) -1.00( 25.6%)  1.00( 25.6%)  2.00( 24.1%) 
 MO    27 (   10) HAS LZ(WEIGHT)=-2.00(  6.5%) -1.00(  7.2%) -0.00( 72.6%)  1.00(  7.2%)  2.00(  6.5%) 
 MO    28 (   10) HAS LZ(WEIGHT)=-2.00(  1.4%) -1.00( 46.8%) -0.00(  3.6%)  1.00( 46.8%)  2.00(  1.4%) 
 MO    29 (   10) HAS LZ(WEIGHT)=-2.00( 23.0%) -1.00( 20.1%) -0.00( 13.7%)  1.00( 20.1%)  2.00( 23.0%) 
 MO    30 (   10) HAS LZ(WEIGHT)=-2.00( 45.0%) -0.00(  9.6%)  2.00( 45.0%) 
 MO    31 (   11) HAS LZ(WEIGHT)= 0.00(100.0%) 
 MO    32 (   12) HAS LZ(WEIGHT)=-1.00( 50.0%)  1.00( 50.0%) 
 MO    33 (   12) HAS LZ(WEIGHT)=-1.00( 10.2%)  0.00( 79.5%)  1.00( 10.2%) 
 MO    34 (   12) HAS LZ(WEIGHT)=-1.00( 39.8%)  0.00( 20.5%)  1.00( 39.8%) 
 MO    35 (   13) HAS LZ(WEIGHT)= 0.00(100.0%) 

          ------------
          EIGENVECTORS
          ------------

                      1          2          3          4          5
                   -4.7321    -0.3090     0.0544     0.0544     0.0544
                     A          A          A          A          A   
    1  BE 1  S    0.596198  -0.110871  -0.000000  -0.000000  -0.000000
    2  BE 1  S    0.446887  -0.177888  -0.000000  -0.000000  -0.000000
    3  BE 1  X   -0.000000  -0.000000   0.087869   0.139304   0.007897
    4  BE 1  Y   -0.000000  -0.000000  -0.019225   0.002844   0.163741
    5  BE 1  Z   -0.000000  -0.000000   0.138197  -0.088177   0.017757
    6  BE 1  S   -0.004991   0.540728  -0.000000  -0.000000  -0.000000
    7  BE 1  X   -0.000000  -0.000000   0.061393   0.097331   0.005518
    8  BE 1  Y   -0.000000  -0.000000  -0.013432   0.001987   0.114405
    9  BE 1  Z   -0.000000  -0.000000   0.096557  -0.061609   0.012407
   10  BE 1  S   -0.002931   0.533989  -0.000000  -0.000000  -0.000000
   11  BE 1  X   -0.000000  -0.000000   0.448505   0.711045   0.040310
   12  BE 1  Y   -0.000000  -0.000000  -0.098130   0.014516   0.835779
   13  BE 1  Z   -0.000000  -0.000000   0.705394  -0.450079   0.090638
   14  BE 1 XX    0.000870   0.009743  -0.000000  -0.000000  -0.000000
   15  BE 1 YY    0.000870   0.009743  -0.000000  -0.000000  -0.000000
   16  BE 1 ZZ    0.000870   0.009743  -0.000000  -0.000000  -0.000000
   17  BE 1 XY   -0.000000  -0.000000  -0.000000  -0.000000  -0.000000
   18  BE 1 XZ   -0.000000  -0.000000  -0.000000  -0.000000  -0.000000
   19  BE 1 YZ   -0.000000  -0.000000  -0.000000  -0.000000  -0.000000
   20  BE 1 XX    0.001894   0.000368  -0.000000  -0.000000  -0.000000
   21  BE 1 YY    0.001894   0.000368  -0.000000  -0.000000  -0.000000
   22  BE 1 ZZ    0.001894   0.000368  -0.000000  -0.000000  -0.000000
   23  BE 1 XY   -0.000000  -0.000000  -0.000000  -0.000000  -0.000000
   24  BE 1 XZ   -0.000000  -0.000000  -0.000000  -0.000000  -0.000000
   25  BE 1 YZ   -0.000000  -0.000000  -0.000000  -0.000000  -0.000000
   26  BE 1 XXX  -0.000000  -0.000000   0.003323   0.005268   0.000299
   27  BE 1 YYY  -0.000000  -0.000000  -0.000727   0.000108   0.006192
   28  BE 1 ZZZ  -0.000000  -0.000000   0.005226  -0.003334   0.000671
   29  BE 1 XXY  -0.000000  -0.000000  -0.000325   0.000048   0.002769
   30  BE 1 XXZ  -0.000000  -0.000000   0.002337  -0.001491   0.000300
   31  BE 1 YYX  -0.000000  -0.000000   0.001486   0.002356   0.000134
   32  BE 1 YYZ  -0.000000  -0.000000   0.002337  -0.001491   0.000300
   33  BE 1 ZZX  -0.000000  -0.000000   0.001486   0.002356   0.000134
   34  BE 1 ZZY  -0.000000  -0.000000  -0.000325   0.000048   0.002769
   35  BE 1 XYZ  -0.000000  -0.000000  -0.000000  -0.000000  -0.000000

                      6          7          8          9         10
                    0.1467     0.2894     0.2894     0.2894     0.3707
                     A          A          A          A          A   
    1  BE 1  S    0.071886  -0.000000   0.000000  -0.000000   0.000000
    2  BE 1  S    0.004130  -0.000000   0.000000  -0.000000   0.000000
    3  BE 1  X   -0.000000   0.093792  -0.150572  -0.135871   0.000000
    4  BE 1  Y   -0.000000  -0.195608  -0.106703  -0.016780   0.000000
    5  BE 1  Z   -0.000000  -0.053574   0.125985  -0.176599   0.000000
    6  BE 1  S   -1.869691  -0.000000   0.000000  -0.000000   0.000000
    7  BE 1  X   -0.000000   0.438397  -0.703796  -0.635081   0.000000
    8  BE 1  Y   -0.000000  -0.914302  -0.498746  -0.078434   0.000000
    9  BE 1  Z   -0.000000  -0.250415   0.588873  -0.825450   0.000000
   10  BE 1  S    4.008483  -0.000000   0.000000  -0.000000   0.000000
   11  BE 1  X   -0.000000  -0.468434   0.752018   0.678595   0.000000
   12  BE 1  Y   -0.000000   0.976947   0.532918   0.083808   0.000000
   13  BE 1  Z   -0.000000   0.267572  -0.629221   0.882008   0.000000
   14  BE 1 XX   -0.097722  -0.000000   0.000000  -0.000000  -0.005054
   15  BE 1 YY   -0.097722  -0.000000   0.000000  -0.000000   0.000163
   16  BE 1 ZZ   -0.097722  -0.000000   0.000000  -0.000000   0.004891
   17  BE 1 XY   -0.000000  -0.000000   0.000000  -0.000000   0.017639
   18  BE 1 XZ   -0.000000  -0.000000   0.000000  -0.000000  -0.026287
   19  BE 1 YZ   -0.000000  -0.000000   0.000000  -0.000000  -0.010810
   20  BE 1 XX   -0.982189  -0.000000   0.000000  -0.000000   0.151153
   21  BE 1 YY   -0.982189  -0.000000   0.000000  -0.000000  -0.004884
   22  BE 1 ZZ   -0.982189  -0.000000   0.000000  -0.000000  -0.146269
   23  BE 1 XY   -0.000000  -0.000000   0.000000  -0.000000  -0.527541
   24  BE 1 XZ   -0.000000  -0.000000   0.000000  -0.000000   0.786178
   25  BE 1 YZ   -0.000000  -0.000000   0.000000  -0.000000   0.323292
   26  BE 1 XXX  -0.000000   0.039208  -0.062944  -0.056799   0.000000
   27  BE 1 YYY  -0.000000  -0.081771  -0.044605  -0.007015   0.000000
   28  BE 1 ZZZ  -0.000000  -0.022396   0.052666  -0.073824   0.000000
   29  BE 1 XXY  -0.000000  -0.036569  -0.019948  -0.003137   0.000000
   30  BE 1 XXZ  -0.000000  -0.010016   0.023553  -0.033015   0.000000
   31  BE 1 YYX  -0.000000   0.017534  -0.028149  -0.025401   0.000000
   32  BE 1 YYZ  -0.000000  -0.010016   0.023553  -0.033015   0.000000
   33  BE 1 ZZX  -0.000000   0.017534  -0.028149  -0.025401   0.000000
   34  BE 1 ZZY  -0.000000  -0.036569  -0.019948  -0.003137   0.000000
   35  BE 1 XYZ  -0.000000  -0.000000   0.000000  -0.000000   0.000000

                     11         12         13         14         15
                    0.3707     0.3707     0.3707     0.3707     0.6168
                     A          A          A          A          A   
    1  BE 1  S   -0.000000  -0.000000  -0.000000  -0.000000  -0.105067
    2  BE 1  S   -0.000000  -0.000000  -0.000000  -0.000000  -0.474664
    3  BE 1  X   -0.000000  -0.000000  -0.000000  -0.000000  -0.000000
    4  BE 1  Y   -0.000000  -0.000000  -0.000000  -0.000000  -0.000000
    5  BE 1  Z   -0.000000  -0.000000  -0.000000  -0.000000  -0.000000
    6  BE 1  S   -0.000000  -0.000000  -0.000000  -0.000000   0.338839
    7  BE 1  X   -0.000000  -0.000000  -0.000000  -0.000000  -0.000000
    8  BE 1  Y   -0.000000  -0.000000  -0.000000  -0.000000  -0.000000
    9  BE 1  Z   -0.000000  -0.000000  -0.000000  -0.000000  -0.000000
   10  BE 1  S   -0.000000  -0.000000  -0.000000  -0.000000   3.912091
   11  BE 1  X   -0.000000  -0.000000  -0.000000  -0.000000  -0.000000
   12  BE 1  Y   -0.000000  -0.000000  -0.000000  -0.000000  -0.000000
   13  BE 1  Z   -0.000000  -0.000000  -0.000000  -0.000000  -0.000000
   14  BE 1 XX    0.003650   0.010720   0.015422  -0.027576  -0.193694
   15  BE 1 YY   -0.022097  -0.011274   0.011611   0.020045  -0.193694
   16  BE 1 ZZ    0.018447   0.000554  -0.027033   0.007530  -0.193694
   17  BE 1 XY   -0.021144   0.003902  -0.014706  -0.012739  -0.000000
   18  BE 1 XZ   -0.011912   0.012952  -0.012217   0.001444  -0.000000
   19  BE 1 YZ   -0.001331  -0.028417  -0.007132  -0.013230  -0.000000
   20  BE 1 XX   -0.109152  -0.320593  -0.461226   0.824702  -1.851770
   21  BE 1 YY    0.660851   0.337166  -0.347256  -0.599490  -1.851770
   22  BE 1 ZZ   -0.551698  -0.016573   0.808482  -0.225212  -1.851770
   23  BE 1 XY    0.632369  -0.116698   0.439817   0.380994  -0.000000
   24  BE 1 XZ    0.356263  -0.387352   0.365376  -0.043176  -0.000000
   25  BE 1 YZ    0.039802   0.849855   0.213290   0.395671  -0.000000
   26  BE 1 XXX  -0.000000  -0.000000  -0.000000  -0.000000  -0.000000
   27  BE 1 YYY  -0.000000  -0.000000  -0.000000  -0.000000  -0.000000
   28  BE 1 ZZZ  -0.000000  -0.000000  -0.000000  -0.000000  -0.000000
   29  BE 1 XXY  -0.000000  -0.000000  -0.000000  -0.000000  -0.000000
   30  BE 1 XXZ  -0.000000  -0.000000  -0.000000  -0.000000  -0.000000
   31  BE 1 YYX  -0.000000  -0.000000  -0.000000  -0.000000  -0.000000
   32  BE 1 YYZ  -0.000000  -0.000000  -0.000000  -0.000000  -0.000000
   33  BE 1 ZZX  -0.000000  -0.000000  -0.000000  -0.000000  -0.000000
   34  BE 1 ZZY  -0.000000  -0.000000  -0.000000  -0.000000  -0.000000
   35  BE 1 XYZ  -0.000000  -0.000000  -0.000000  -0.000000  -0.000000

                     16         17         18         19         20
                    1.0550     1.0550     1.0550     1.0550     1.0550
                     A          A          A          A          A   
    1  BE 1  S   -0.000000  -0.000000   0.000000   0.000000   0.000000
    2  BE 1  S   -0.000000  -0.000000   0.000000   0.000000   0.000000
    3  BE 1  X   -0.000000  -0.000000   0.000000   0.000000   0.000000
    4  BE 1  Y   -0.000000  -0.000000   0.000000   0.000000   0.000000
    5  BE 1  Z   -0.000000  -0.000000   0.000000   0.000000   0.000000
    6  BE 1  S   -0.000000  -0.000000   0.000000   0.000000   0.000000
    7  BE 1  X   -0.000000  -0.000000   0.000000   0.000000   0.000000
    8  BE 1  Y   -0.000000  -0.000000   0.000000   0.000000   0.000000
    9  BE 1  Z   -0.000000  -0.000000   0.000000   0.000000   0.000000
   10  BE 1  S   -0.000000  -0.000000   0.000000   0.000000   0.000000
   11  BE 1  X   -0.000000  -0.000000   0.000000   0.000000   0.000000
   12  BE 1  Y   -0.000000  -0.000000   0.000000   0.000000   0.000000
   13  BE 1  Z   -0.000000  -0.000000   0.000000   0.000000   0.000000
   14  BE 1 XX   -0.000000  -0.000000   0.000000   0.000000   0.000000
   15  BE 1 YY   -0.000000  -0.000000   0.000000   0.000000   0.000000
   16  BE 1 ZZ   -0.000000  -0.000000   0.000000   0.000000   0.000000
   17  BE 1 XY   -0.000000  -0.000000   0.000000   0.000000   0.000000
   18  BE 1 XZ   -0.000000  -0.000000   0.000000   0.000000   0.000000
   19  BE 1 YZ   -0.000000  -0.000000   0.000000   0.000000   0.000000
   20  BE 1 XX   -0.000000  -0.000000   0.000000   0.000000   0.000000
   21  BE 1 YY   -0.000000  -0.000000   0.000000   0.000000   0.000000
   22  BE 1 ZZ   -0.000000  -0.000000   0.000000   0.000000   0.000000
   23  BE 1 XY   -0.000000  -0.000000   0.000000   0.000000   0.000000
   24  BE 1 XZ   -0.000000  -0.000000   0.000000   0.000000   0.000000
   25  BE 1 YZ   -0.000000  -0.000000   0.000000   0.000000   0.000000
   26  BE 1 XXX  -0.013583   0.694264   0.022224   0.087868  -0.574065
   27  BE 1 YYY   0.008864   0.022115   0.950705  -0.208089   0.044884
   28  BE 1 ZZZ  -0.041046   0.684637  -0.013331  -0.110881   0.645271
   29  BE 1 XXY  -0.062941  -0.095576  -0.404073   0.327914  -0.244003
   30  BE 1 XXZ   0.031930  -0.362737   0.110162   0.831291  -0.402428
   31  BE 1 YYX  -0.106188  -0.328988  -0.097073  -0.363892   0.010946
   32  BE 1 YYZ   0.023138  -0.555801  -0.092276  -0.682529  -0.463294
   33  BE 1 ZZX   0.124411  -0.602464   0.067256   0.246005   0.759244
   34  BE 1 ZZY   0.051049   0.065905  -0.871432  -0.048734   0.183785
   35  BE 1 XYZ   0.987912   0.052287  -0.004189  -0.038990  -0.056343

                     21         22         23         24         25
                    1.0550     1.0550     1.1035     1.1035     1.1035
                     A          A          A          A          A   
    1  BE 1  S   -0.000000   0.000000   0.000000   0.000000  -0.000000
    2  BE 1  S   -0.000000   0.000000   0.000000   0.000000  -0.000000
    3  BE 1  X   -0.000000   0.000000   0.123615   0.126724  -0.811787
    4  BE 1  Y   -0.000000   0.000000  -0.711369  -0.394253  -0.169869
    5  BE 1  Z   -0.000000   0.000000   0.411109  -0.720307  -0.049842
    6  BE 1  S   -0.000000   0.000000   0.000000   0.000000  -0.000000
    7  BE 1  X   -0.000000   0.000000   0.094703   0.097085  -0.621922
    8  BE 1  Y   -0.000000   0.000000  -0.544990  -0.302043  -0.130139
    9  BE 1  Z   -0.000000   0.000000   0.314957  -0.551838  -0.038185
   10  BE 1  S   -0.000000   0.000000   0.000000   0.000000  -0.000000
   11  BE 1  X   -0.000000   0.000000   0.069875   0.071633  -0.458873
   12  BE 1  Y   -0.000000   0.000000  -0.402111  -0.222857  -0.096021
   13  BE 1  Z   -0.000000   0.000000   0.232385  -0.407163  -0.028174
   14  BE 1 XX   -0.000000   0.000000   0.000000   0.000000  -0.000000
   15  BE 1 YY   -0.000000   0.000000   0.000000   0.000000  -0.000000
   16  BE 1 ZZ   -0.000000   0.000000   0.000000   0.000000  -0.000000
   17  BE 1 XY   -0.000000   0.000000   0.000000   0.000000  -0.000000
   18  BE 1 XZ   -0.000000   0.000000   0.000000   0.000000  -0.000000
   19  BE 1 YZ   -0.000000   0.000000   0.000000   0.000000  -0.000000
   20  BE 1 XX   -0.000000   0.000000   0.000000   0.000000  -0.000000
   21  BE 1 YY   -0.000000   0.000000   0.000000   0.000000  -0.000000
   22  BE 1 ZZ   -0.000000   0.000000   0.000000   0.000000  -0.000000
   23  BE 1 XY   -0.000000   0.000000   0.000000   0.000000  -0.000000
   24  BE 1 XZ   -0.000000   0.000000   0.000000   0.000000  -0.000000
   25  BE 1 YZ   -0.000000   0.000000   0.000000   0.000000  -0.000000
   26  BE 1 XXX  -0.392667  -0.160812  -0.167563  -0.171779   1.100400
   27  BE 1 YYY   0.067932  -0.213686   0.964281   0.534422   0.230262
   28  BE 1 ZZZ   0.123183   0.292517  -0.557270   0.976397   0.067563
   29  BE 1 XXY  -0.134577   0.915671   0.431240   0.239001   0.102976
   30  BE 1 XXZ   0.281717  -0.350583  -0.249219   0.436658   0.030215
   31  BE 1 YYX   0.950278   0.188419  -0.074937  -0.076822   0.492114
   32  BE 1 YYZ  -0.446984  -0.041869  -0.249219   0.436658   0.030215
   33  BE 1 ZZX  -0.423460   0.027333  -0.074937  -0.076822   0.492114
   34  BE 1 ZZY   0.043436  -0.628981   0.431240   0.239001   0.102976
   35  BE 1 XYZ   0.096987   0.084719   0.000000   0.000000  -0.000000

                     26         27         28         29         30
                    1.5566     1.5566     1.5566     1.5566     1.5566
                     A          A          A          A          A   
    1  BE 1  S   -0.000000   0.000000   0.000000   0.000000  -0.000000
    2  BE 1  S   -0.000000   0.000000   0.000000   0.000000  -0.000000
    3  BE 1  X   -0.000000   0.000000   0.000000   0.000000  -0.000000
    4  BE 1  Y   -0.000000   0.000000   0.000000   0.000000  -0.000000
    5  BE 1  Z   -0.000000   0.000000   0.000000   0.000000  -0.000000
    6  BE 1  S   -0.000000   0.000000   0.000000   0.000000  -0.000000
    7  BE 1  X   -0.000000   0.000000   0.000000   0.000000  -0.000000
    8  BE 1  Y   -0.000000   0.000000   0.000000   0.000000  -0.000000
    9  BE 1  Z   -0.000000   0.000000   0.000000   0.000000  -0.000000
   10  BE 1  S   -0.000000   0.000000   0.000000   0.000000  -0.000000
   11  BE 1  X   -0.000000   0.000000   0.000000   0.000000  -0.000000
   12  BE 1  Y   -0.000000   0.000000   0.000000   0.000000  -0.000000
   13  BE 1  Z   -0.000000   0.000000   0.000000   0.000000  -0.000000
   14  BE 1 XX    0.038923  -0.710171   0.239027   0.378181  -0.747129
   15  BE 1 YY    0.046336  -0.247666  -0.026923   0.038535   1.094769
   16  BE 1 ZZ   -0.085259   0.957837  -0.212104  -0.416716  -0.347640
   17  BE 1 XY   -0.780443   0.304826   0.113049   0.737027   0.078830
   18  BE 1 XZ    0.114116   0.215803   1.085556  -0.143023   0.075721
   19  BE 1 YZ    0.796751   0.368741  -0.066617   0.698888   0.023458
   20  BE 1 XX   -0.016780   0.306162  -0.103047  -0.163038   0.322096
   21  BE 1 YY   -0.019976   0.106772   0.011607  -0.016613  -0.471967
   22  BE 1 ZZ    0.036756  -0.412934   0.091440   0.179651   0.149871
   23  BE 1 XY    0.336458  -0.131414  -0.048737  -0.317741  -0.033984
   24  BE 1 XZ   -0.049197  -0.093035  -0.467995   0.061659  -0.032644
   25  BE 1 YZ   -0.343488  -0.158968   0.028719  -0.301298  -0.010113
   26  BE 1 XXX  -0.000000   0.000000   0.000000   0.000000  -0.000000
   27  BE 1 YYY  -0.000000   0.000000   0.000000   0.000000  -0.000000
   28  BE 1 ZZZ  -0.000000   0.000000   0.000000   0.000000  -0.000000
   29  BE 1 XXY  -0.000000   0.000000   0.000000   0.000000  -0.000000
   30  BE 1 XXZ  -0.000000   0.000000   0.000000   0.000000  -0.000000
   31  BE 1 YYX  -0.000000   0.000000   0.000000   0.000000  -0.000000
   32  BE 1 YYZ  -0.000000   0.000000   0.000000   0.000000  -0.000000
   33  BE 1 ZZX  -0.000000   0.000000   0.000000   0.000000  -0.000000
   34  BE 1 ZZY  -0.000000   0.000000   0.000000   0.000000  -0.000000
   35  BE 1 XYZ  -0.000000   0.000000   0.000000   0.000000  -0.000000

                     31         32         33         34         35
                    3.1482     3.3765     3.3765     3.3765     9.5391
                     A          A          A          A          A   
    1  BE 1  S    0.177820  -0.000000  -0.000000  -0.000000   2.029178
    2  BE 1  S   -2.243688  -0.000000  -0.000000  -0.000000  -3.197662
    3  BE 1  X    0.000000   0.439979   1.793174  -3.526181   0.000000
    4  BE 1  Y    0.000000  -3.955785   0.168537  -0.407876   0.000000
    5  BE 1  Z    0.000000   0.034445  -3.549525  -1.800747   0.000000
    6  BE 1  S    8.789252  -0.000000  -0.000000  -0.000000   4.050335
    7  BE 1  X    0.000000  -1.667655  -6.796682  13.365312   0.000000
    8  BE 1  Y    0.000000  14.993645  -0.638807   1.545977   0.000000
    9  BE 1  Z    0.000000  -0.130556  13.453793   6.825387   0.000000
   10  BE 1  S    3.960610  -0.000000  -0.000000  -0.000000   2.680213
   11  BE 1  X    0.000000   0.124756   0.508455  -0.999849   0.000000
   12  BE 1  Y    0.000000  -1.121664   0.047789  -0.115653   0.000000
   13  BE 1  Z    0.000000   0.009767  -1.006468  -0.510602   0.000000
   14  BE 1 XX   -3.390982  -0.000000  -0.000000  -0.000000  -1.463743
   15  BE 1 YY   -3.390982  -0.000000  -0.000000  -0.000000  -1.463743
   16  BE 1 ZZ   -3.390982  -0.000000  -0.000000  -0.000000  -1.463743
   17  BE 1 XY    0.000000  -0.000000  -0.000000  -0.000000   0.000000
   18  BE 1 XZ    0.000000  -0.000000  -0.000000  -0.000000   0.000000
   19  BE 1 YZ    0.000000  -0.000000  -0.000000  -0.000000   0.000000
   20  BE 1 XX   -2.728489  -0.000000  -0.000000  -0.000000  -1.658727
   21  BE 1 YY   -2.728489  -0.000000  -0.000000  -0.000000  -1.658727
   22  BE 1 ZZ   -2.728489  -0.000000  -0.000000  -0.000000  -1.658727
   23  BE 1 XY    0.000000  -0.000000  -0.000000  -0.000000   0.000000
   24  BE 1 XZ    0.000000  -0.000000  -0.000000  -0.000000   0.000000
   25  BE 1 YZ    0.000000  -0.000000  -0.000000  -0.000000   0.000000
   26  BE 1 XXX   0.000000   0.871190   3.550613  -6.982090   0.000000
   27  BE 1 YYY   0.000000  -7.832737   0.333715  -0.807624   0.000000
   28  BE 1 ZZZ   0.000000   0.068203  -7.028313  -3.565608   0.000000
   29  BE 1 XXY   0.000000  -3.502907   0.149242  -0.361181   0.000000
   30  BE 1 XXZ   0.000000   0.030501  -3.143157  -1.594589   0.000000
   31  BE 1 YYX   0.000000   0.389608   1.587882  -3.122485   0.000000
   32  BE 1 YYZ   0.000000   0.030501  -3.143157  -1.594589   0.000000
   33  BE 1 ZZX   0.000000   0.389608   1.587882  -3.122485   0.000000
   34  BE 1 ZZY   0.000000  -3.502907   0.149242  -0.361181   0.000000
   35  BE 1 XYZ   0.000000  -0.000000  -0.000000  -0.000000   0.000000
 ...... END OF RHF CALCULATION ......
 STEP CPU TIME =     0.01 TOTAL CPU TIME =          0.0 (      0.0 MIN)
 TOTAL WALL CLOCK TIME=          0.0 SECONDS, CPU UTILIZATION IS   100.00%

     ----------------------------------------------------------------
     PROPERTY VALUES FOR THE RHF   SELF-CONSISTENT FIELD WAVEFUNCTION
     ----------------------------------------------------------------

          -----------------
          ENERGY COMPONENTS
          -----------------

         WAVEFUNCTION NORMALIZATION =       1.0000000000

                ONE ELECTRON ENERGY =     -19.0616012935
                TWO ELECTRON ENERGY =       4.4896480031
           NUCLEAR REPULSION ENERGY =       0.0000000000
                                      ------------------
                       TOTAL ENERGY =     -14.5719532904

 ELECTRON-ELECTRON POTENTIAL ENERGY =       4.4896480031
  NUCLEUS-ELECTRON POTENTIAL ENERGY =     -33.6318216542
   NUCLEUS-NUCLEUS POTENTIAL ENERGY =       0.0000000000
                                      ------------------
             TOTAL POTENTIAL ENERGY =     -29.1421736510
               TOTAL KINETIC ENERGY =      14.5702203606
                 VIRIAL RATIO (V/T) =       2.0001189364

          ---------------------------------------
          MULLIKEN AND LOWDIN POPULATION ANALYSES
          ---------------------------------------

     ATOMIC MULLIKEN POPULATION IN EACH MOLECULAR ORBITAL

                      1          2

                  2.000000   2.000000

    1             2.000000   2.000000

               ----- POPULATIONS IN EACH AO -----
                             MULLIKEN      LOWDIN
              1  BE 1  S      1.16629     1.09819
              2  BE 1  S      0.82542     0.87361
              3  BE 1  X      0.00000     0.00000
              4  BE 1  Y      0.00000     0.00000
              5  BE 1  Z      0.00000     0.00000
              6  BE 1  S      0.96654     0.44724
              7  BE 1  X      0.00000     0.00000
              8  BE 1  Y      0.00000     0.00000
              9  BE 1  Z      0.00000     0.00000
             10  BE 1  S      1.00393     0.48628
             11  BE 1  X      0.00000     0.00000
             12  BE 1  Y      0.00000     0.00000
             13  BE 1  Z      0.00000     0.00000
             14  BE 1 XX      0.01204     0.16841
             15  BE 1 YY      0.01204     0.16841
             16  BE 1 ZZ      0.01204     0.16841
             17  BE 1 XY      0.00000     0.00000
             18  BE 1 XZ      0.00000     0.00000
             19  BE 1 YZ      0.00000     0.00000
             20  BE 1 XX      0.00057     0.19648
             21  BE 1 YY      0.00057     0.19648
             22  BE 1 ZZ      0.00057     0.19648
             23  BE 1 XY      0.00000     0.00000
             24  BE 1 XZ      0.00000     0.00000
             25  BE 1 YZ      0.00000     0.00000
             26  BE 1 XXX     0.00000     0.00000
             27  BE 1 YYY     0.00000     0.00000
             28  BE 1 ZZZ     0.00000     0.00000
             29  BE 1 XXY     0.00000     0.00000
             30  BE 1 XXZ     0.00000     0.00000
             31  BE 1 YYX     0.00000     0.00000
             32  BE 1 YYZ     0.00000     0.00000
             33  BE 1 ZZX     0.00000     0.00000
             34  BE 1 ZZY     0.00000     0.00000
             35  BE 1 XYZ     0.00000     0.00000

          ----- MULLIKEN ATOMIC OVERLAP POPULATIONS -----
          (OFF-DIAGONAL ELEMENTS NEED TO BE MULTIPLIED BY 2)

             1

    1    4.0000000

          TOTAL MULLIKEN AND LOWDIN ATOMIC POPULATIONS
       ATOM         MULL.POP.    CHARGE          LOW.POP.     CHARGE
    1 BE            4.000000   -0.000000         4.000000    0.000000

          -------------------------------
          BOND ORDER AND VALENCE ANALYSIS     BOND ORDER THRESHOLD=0.050
          -------------------------------

                   BOND                       BOND                       BOND
  ATOM PAIR DIST  ORDER      ATOM PAIR DIST  ORDER      ATOM PAIR DIST  ORDER

                       TOTAL       BONDED        FREE
      ATOM            VALENCE     VALENCE     VALENCE
    1 BE               -0.000       0.000      -0.000

          ---------------------
          ELECTROSTATIC MOMENTS
          ---------------------

 POINT   1           X           Y           Z (BOHR)    CHARGE
                 0.000000    0.000000    0.000000        0.00 (A.U.)
         DX          DY          DZ         /D/  (DEBYE)
     0.000000    0.000000    0.000000    0.000000
 ...... END OF PROPERTY EVALUATION ......
 STEP CPU TIME =     0.00 TOTAL CPU TIME =          0.0 (      0.0 MIN)
 TOTAL WALL CLOCK TIME=          0.0 SECONDS, CPU UTILIZATION IS   100.00%
               580000  WORDS OF DYNAMIC MEMORY USED
 EXECUTION OF GAMESS TERMINATED NORMALLY Thu Jun 13 02:05:41 2019
 DDI: 263640 bytes (0.3 MB / 0 MWords) used by master data server.

 ----------------------------------------
 CPU timing information for all processes
 ========================================
 0: 0.40 + 0.00 = 0.40
 ----------------------------------------
 ddikick.x: exited gracefully.
----- accounting info -----
Files used on the master node amlan-PT-3420 were:
-rw-rw-r-- 1 akroy akroy   21225 Jun 13 02:05 /tmp/be_atom_6_3112df2pd_all.dat
-rw-rw-r-- 1 akroy akroy     244 Jun 13 02:05 /tmp/be_atom_6_3112df2pd_all.F05
-rw-rw-r-- 1 akroy akroy  360032 Jun 13 02:05 /tmp/be_atom_6_3112df2pd_all.F08
-rw-rw-r-- 1 akroy akroy 1537840 Jun 13 02:05 /tmp/be_atom_6_3112df2pd_all.F10
Thu Jun 13 02:05:44 IST 2019
0.0u 0.0s 0:03.19 1.5% 0+0k 0+16io 0pf+0w
