----- GAMESS execution script 'rungms' -----
This job is running on host amlan-PT-3420
under operating system Linux at Thu Jun 13 18:06:13 IST 2019
Available scratch disk space (Kbyte units) at beginning of the job is
Filesystem      1K-blocks     Used  Available Use% Mounted on
/dev/sda3      1916812448 56943740 1762477196   4% /
GAMESS temporary binary files will be written to /tmp
GAMESS supplementary output files will be written to /tmp
Copying input file b_atom_6_311g2df2pd_all.inp to your run's scratch directory...

 Distributed Data Interface kickoff program.
 Initiating 1 compute processes on 1 nodes to run the following command:
 /home/akroy/gamess/gamess.01.x b_atom_6_311g2df2pd_all 

          ******************************************************
          *         GAMESS VERSION = 30 SEP 2018 (R3)         *
          *             FROM IOWA STATE UNIVERSITY             *
          * M.W.SCHMIDT, K.K.BALDRIDGE, J.A.BOATZ, S.T.ELBERT, *
          *   M.S.GORDON, J.H.JENSEN, S.KOSEKI, N.MATSUNAGA,   *
          *          K.A.NGUYEN, S.J.SU, T.L.WINDUS,           *
          *       TOGETHER WITH M.DUPUIS, J.A.MONTGOMERY       *
          *         J.COMPUT.CHEM.  14, 1347-1363(1993)        *
          **************** 64 BIT LINUX VERSION ****************

  SINCE 1993, STUDENTS AND POSTDOCS WORKING AT IOWA STATE UNIVERSITY
  AND ALSO IN THEIR VARIOUS JOBS AFTER LEAVING ISU HAVE MADE IMPORTANT
  CONTRIBUTIONS TO THE CODE:
     IVANA ADAMOVIC, CHRISTINE AIKENS, YURI ALEXEEV, POOJA ARORA,
     ANDREY ASADCHEV, ROB BELL, PRADIPTA BANDYOPADHYAY, JONATHAN BENTZ,
     BRETT BODE, KURT BRORSEN, CALEB CARLIN, GALINA CHABAN, WEI CHEN,
     CHEOL HO CHOI, PAUL DAY, ALBERT DEFUSCO, NUWAN DESILVA, TIM DUDLEY,
     DMITRI FEDOROV, ALEX FINDLATER, GRAHAM FLETCHER, MARK FREITAG,
     KURT GLAESEMANN, ANASTASIA GUNINA,
     DAN KEMP, GRANT MERRILL, NORIYUKI MINEZAWA, JONATHAN MULLIN,
     TAKESHI NAGATA, SEAN NEDD, HEATHER NETZLOFF, BOSILJKA NJEGIC, RYAN OLSON,
     MIKE PAK, BUU PHAM,
     SPENCER PRUITT, LUKE ROSKOP, JIM SHOEMAKER, LYUDMILA SLIPCHENKO,
     TONY SMITH, SAROM SOK LEANG, JIE SONG, TETSUYA TAKETSUGU, SIMON WEBB,
     PENG XU, SOOHAENG YOO, FEDERICO ZAHARIEV

  ADDITIONAL CODE HAS BEEN PROVIDED BY COLLABORATORS IN OTHER GROUPS:
     IOWA STATE UNIVERSITY:
          JOE IVANIC, AARON WEST, LAIMUTIS BYTAUTAS, KLAUS RUEDENBERG
     UNIVERSITY OF TOKYO: KIMIHIKO HIRAO, TAKAHITO NAKAJIMA,
          TAKAO TSUNEDA, MUNEAKI KAMIYA, SUSUMU YANAGISAWA,
          KIYOSHI YAGI, MAHITO CHIBA, SEIKEN TOKURA, NAOAKI KAWAKAMI
     UNIVERSITY OF AARHUS: FRANK JENSEN
     UNIVERSITY OF IOWA: VISVALDAS KAIRYS, HUI LI
     NATIONAL INST. OF STANDARDS AND TECHNOLOGY: WALT STEVENS, DAVID GARMER
     UNIVERSITY OF PISA: BENEDETTA MENNUCCI, JACOPO TOMASI
     UNIVERSITY OF MEMPHIS: HENRY KURTZ, PRAKASHAN KORAMBATH
     UNIVERSITY OF ALBERTA: TOBY ZENG, MARIUSZ KLOBUKOWSKI
     UNIVERSITY OF NEW ENGLAND: MARK SPACKMAN
     MIE UNIVERSITY: HIROAKI UMEDA
     NAT. INST. OF ADVANCED INDUSTRIAL SCIENCE AND TECHNOLOGY: KAZUO KITAURA
     MICHIGAN STATE UNIVERSITY:
          KAROL KOWALSKI, MARTA WLOCH, JEFFREY GOUR, JESSE LUTZ,
          WEI LI, JUN SHEN, J. EMILIANO DEUSTUA, PIOTR PIECUCH
     UNIVERSITY OF MINNESOTA:
          YINAN SHU
     UNIVERSITY OF SILESIA: MONIKA MUSIAL, STANISLAW KUCHARSKI
     FACULTES UNIVERSITAIRES NOTRE-DAME DE LA PAIX:
          OLIVIER QUINET, BENOIT CHAMPAGNE
     UNIVERSITY OF CALIFORNIA - SANTA BARBARA: BERNARD KIRTMAN
     INSTITUTE FOR MOLECULAR SCIENCE:
          KAZUYA ISHIMURA, MICHIO KATOUDA, AND SHIGERU NAGASE
     UNIVERSITY OF NOTRE DAME: ANNA POMOGAEVA, DAN CHIPMAN
     KYUSHU UNIVERSITY:
          HARUYUKI NAKANO,
          FENG LONG GU, JACEK KORCHOWIEC, MARCIN MAKOWSKI, AND YURIKO AOKI,
          HIROTOSHI MORI AND EISAKU MIYOSHI
     PENNSYLVANIA STATE UNIVERSITY:
          TZVETELIN IORDANOV, CHET SWALINA, JONATHAN SKONE,
          SHARON HAMMES-SCHIFFER
     WASEDA UNIVERSITY:
          MASATO KOBAYASHI, TOMOKO AKAMA, TSUGUKI TOUMA,
          TAKESHI YOSHIKAWA, YASUHIRO IKABATA, JUNJI SEINO,
          YUYA NAKAJIMA, HIROMI NAKAI
     NANJING UNIVERSITY: SHUHUA LI
     UNIVERSITY OF NEBRASKA:
          PEIFENG SU, DEJUN SI, NANDUN THELLAMUREGE, YALI WANG, HUI LI
     UNIVERSITY OF ZURICH: ROBERTO PEVERATI, KIM BALDRIDGE
     N. COPERNICUS UNIVERSITY AND JACKSON STATE UNIVERSITY:
          MARIA BARYSZ
     UNIVERSITY OF COPENHAGEN: Jimmy Kromann, CASPER STEINMANN
     TOKYO INSTITUTE OF TECHNOLOGY: HIROYA NAKATA
     NAGOYA UNIVERSITY: YOSHIO NISHIMOTO, STEPHAN IRLE
     MOSCOW STATE UNIVERSITY: VLADIMIR MIRONOV

 EXECUTION OF GAMESS BEGUN Thu Jun 13 18:06:14 2019

            ECHO OF THE FIRST FEW INPUT CARDS -
 INPUT CARD> $CONTRL SCFTYP=UHF COORD=CART MULT=2 RUNTYP=ENERGY  $END                       
 INPUT CARD> $SYSTEM TIMLIM=2000 $END                                                       
 INPUT CARD> $DFT METHOD=GRID DFTTYP=NONE $END                                              
 INPUT CARD> $BASIS EXTFIL=.TRUE. GBASIS=6311G2DF $END                                      
 INPUT CARD> $GUESS GUESS=HUCKEL $END                                                       
 INPUT CARD> $DATA                                                                          
 INPUT CARD>B                                                                               
 INPUT CARD>C1                                                                              
 INPUT CARD>B   5.0   0.0000   0.0000   0.0000                                              
 INPUT CARD> $END                                                                           
 INPUT CARD>                                                                                
    1000000 WORDS OF MEMORY AVAILABLE


                    * * * WARNING * * *
 OLD KEYWORD COORD=CART SELECTED, AUTOMATICALLY CHANGED TO COORD=PRINAXIS.
 YOUR MOLECULE'S COORDINATES WILL BE CHANGED TO PRINCIPAL AXES BY
   A) TRANSLATION TO THE CENTER OF MASS, THEN
   B) ROTATION TO HAVE A DIAGONAL MOMENT OF INERTIA TENSOR.

 HOWEVER, NOTHING ELSE IN YOUR INPUT WILL BE ROTATED IN THE SAME WAY,
 SO IF YOU HAVE A $VEC, $VIB, $GRAD, $HESS, EFP PARTICLE COORDINATES,
 OR ANYTHING ELSE THAT DEPENDS ON THE INITIAL ORIENTATION, THAT DATA
 WILL NOT BE USED CORRECTLY IN THIS RUN.

 THE PURPOSE OF COORD=PRINAXIS IS TO BE USED ONCE, ONLY AT THE VERY
 BEGINNING OF A SERIES OF COMPUTATIONS, PERHAPS TO FIND THE SYMMETRY
 UNIQUE ATOMS FROM AN ARBITRARY INITIAL ORIENTATION.

 AFTER THE FIRST RUN, YOU SHOULD USE ONLY COORD=UNIQUE, TO ENSURE THAT
 THE COORDINATES WHICH YOU READ IN ARE THE COORDINATES THAT ARE USED.


     $BASIS REQUESTS READING THE "6311G2DF" BASIS SET FROM AN EXTERNAL FILE


     RUN TITLE
     ---------
 B                                                                               

 THE POINT GROUP OF THE MOLECULE IS C1      
 THE ORDER OF THE PRINCIPAL AXIS IS     0

 THE MOMENTS OF INERTIA ARE (AMU-ANGSTROM**2)
 IXX=     0.000   IYY=     0.000   IZZ=     0.000

 THE EXTERNAL BASIS SET FILE BEING READ IS
     "/home/akroy/gamess/EXTFILE.txt"

 ATOM      ATOMIC                      COORDINATES (BOHR)
           CHARGE         X                   Y                   Z
 B           5.0     0.0000000000        0.0000000000        0.0000000000

          INTERNUCLEAR DISTANCES (ANGS.)
          ------------------------------

                1 B     

   1 B       0.0000000  

  * ... LESS THAN  3.000


     ATOMIC BASIS SET
     ----------------
 THE CONTRACTED PRIMITIVE FUNCTIONS HAVE BEEN UNNORMALIZED
 THE CONTRACTED BASIS FUNCTIONS ARE NOW NORMALIZED TO UNITY

  SHELL TYPE  PRIMITIVE        EXPONENT          CONTRACTION COEFFICIENT(S)

 B         

      1   S       1          2858.8900000    0.002153749067
      1   S       2           428.1400000    0.016582292818
      1   S       3            97.5282000    0.082186964406
      1   S       4            27.9693000    0.276617880201
      1   S       5             8.2157700    0.629315727452
      1   S       6             1.1127800    0.173769924743

      2   L       7            13.2415000    0.117442942252    0.041809998866
      2   L       8             3.0016600    0.918001548610    0.236574993582
      2   L       9             0.9128560   -0.002651048696    0.816213977857

      3   L      10             0.3154540    1.000000000000    1.000000000000

      4   L      11             0.0988563    1.000000000000    1.000000000000

      5   D      12             0.8020000    1.000000000000

      6   D      13             0.2005000    1.000000000000

      7   F      14             0.5000000    1.000000000000

 TOTAL NUMBER OF BASIS SET SHELLS             =    7
 NUMBER OF CARTESIAN GAUSSIAN BASIS FUNCTIONS =   35
 NUMBER OF ELECTRONS                          =    5
 CHARGE OF MOLECULE                           =    0
 SPIN MULTIPLICITY                            =    2
 NUMBER OF OCCUPIED ORBITALS (ALPHA)          =    3
 NUMBER OF OCCUPIED ORBITALS (BETA )          =    2
 TOTAL NUMBER OF ATOMS                        =    1
 THE NUCLEAR REPULSION ENERGY IS        0.0000000000

 THIS MOLECULE IS RECOGNIZED AS BEING LINEAR,
 ORBITAL LZ DEGENERACY TOLERANCE ETOLLZ= 1.00E-06

     $CONTRL OPTIONS
     ---------------
 SCFTYP=UHF          RUNTYP=ENERGY       EXETYP=RUN     
 MPLEVL=       0     CITYP =NONE         CCTYP =NONE         VBTYP =NONE    
 DFTTYP=NONE         TDDFT =NONE    
 MULT  =       2     ICHARG=       0     NZVAR =       0     COORD =PRINAXIS
 PP    =NONE         RELWFN=NONE         LOCAL =NONE         NUMGRD=       F
 ISPHER=      -1     NOSYM =       0     MAXIT =      30     UNITS =ANGS    
 PLTORB=       F     MOLPLT=       F     AIMPAC=       F     FRIEND=        
 NPRINT=       7     IREST =       0     GEOM  =INPUT   
 NORMF =       0     NORMP =       0     ITOL  =      20     ICUT  =       9
 INTTYP=BEST         GRDTYP=BEST         QMTTOL= 1.0E-06

     $SYSTEM OPTIONS
     ---------------
  REPLICATED MEMORY=     1000000 WORDS (ON EVERY NODE).
 DISTRIBUTED MEMDDI=           0 MILLION WORDS IN AGGREGATE,
 MEMDDI DISTRIBUTED OVER   1 PROCESSORS IS           0 WORDS/PROCESSOR.
 TOTAL MEMORY REQUESTED ON EACH PROCESSOR=     1000000 WORDS.
 TIMLIM=        2000.00 MINUTES, OR       1.4 DAYS.
 PARALL= F  BALTYP=  DLB     KDIAG=    0  COREFL= F
 MXSEQ2=     300 MXSEQ3=     150  mem10=         0

          ----------------
          PROPERTIES INPUT
          ----------------

     MOMENTS            FIELD           POTENTIAL          DENSITY
 IEMOM =       1   IEFLD =       0   IEPOT =       0   IEDEN =       0
 WHERE =COMASS     WHERE =NUCLEI     WHERE =NUCLEI     WHERE =NUCLEI  
 OUTPUT=BOTH       OUTPUT=BOTH       OUTPUT=BOTH       OUTPUT=BOTH    
 IEMINT=       0   IEFINT=       0                     IEDINT=       0
                                                       MORB  =       0
          EXTRAPOLATION IN EFFECT
          SOSCF IN EFFECT
          DIIS or SOSCF will be reset if energy rises
 ORBITAL PRINTING OPTION: NPREO=     1    35     2     1

     -------------------------------
     INTEGRAL TRANSFORMATION OPTIONS
     -------------------------------
     NWORD  =            0
     CUTOFF = 1.0E-09     MPTRAN =       0
     DIRTRF =       F     AOINTS =DUP     

          ----------------------
          INTEGRAL INPUT OPTIONS
          ----------------------
 NOPK  =       1 NORDER=       0 SCHWRZ=       F

     ------------------------------------------
     THE POINT GROUP IS C1 , NAXIS= 0, ORDER= 1
     ------------------------------------------

     DIMENSIONS OF THE SYMMETRY SUBSPACES ARE
 A   =   35

 ..... DONE SETTING UP THE RUN .....
 STEP CPU TIME =     0.00 TOTAL CPU TIME =          0.0 (      0.0 MIN)
 TOTAL WALL CLOCK TIME=          0.0 SECONDS, CPU UTILIZATION IS     0.00%

          ********************
          1 ELECTRON INTEGRALS
          ********************
 ...... END OF ONE-ELECTRON INTEGRALS ......
 STEP CPU TIME =     0.00 TOTAL CPU TIME =          0.0 (      0.0 MIN)
 TOTAL WALL CLOCK TIME=          0.0 SECONDS, CPU UTILIZATION IS     0.00%

          -------------
          GUESS OPTIONS
          -------------
          GUESS =HUCKEL            NORB  =       0          NORDER=       0
          MIX   =       F          PRTMO =       F          PUNMO =       F
          TOLZ  = 1.0E-08          TOLE  = 1.0E-05
          SYMDEN=       F          PURIFY=       F

 INITIAL GUESS ORBITALS GENERATED BY HUCKEL   ROUTINE.
 HUCKEL GUESS REQUIRES     10008 WORDS.

 SYMMETRIES FOR INITIAL GUESS ORBITALS FOLLOW.  ALPHA SET(S).
     3 ORBITALS ARE OCCUPIED (    1 CORE ORBITALS).
     2=A        3=A        4=A        5=A        6=A        7=A        8=A   
     9=A       10=A       11=A       12=A       13=A   

 SYMMETRIES FOR INITIAL GUESS ORBITALS FOLLOW.   BETA SET(S).
     2 ORBITALS ARE OCCUPIED (    1 CORE ORBITALS).
     2=A        3=A        4=A        5=A        6=A        7=A        8=A   
     9=A       10=A       11=A       12=A   
 ...... END OF INITIAL ORBITAL SELECTION ......
 STEP CPU TIME =     0.00 TOTAL CPU TIME =          0.0 (      0.0 MIN)
 TOTAL WALL CLOCK TIME=          0.0 SECONDS, CPU UTILIZATION IS     0.00%

                    ----------------------
                    AO INTEGRAL TECHNOLOGY
                    ----------------------
     S,P,L SHELL ROTATED AXIS INTEGRALS, REPROGRAMMED BY
        KAZUYA ISHIMURA (IMS) AND JOSE SIERRA (SYNSTAR).
     S,P,D,L SHELL ROTATED AXIS INTEGRALS PROGRAMMED BY
        KAZUYA ISHIMURA (INSTITUTE FOR MOLECULAR SCIENCE).
     S,P,D,F,G SHELL TO TOTAL QUARTET ANGULAR MOMENTUM SUM 5,
        ERIC PROGRAM BY GRAHAM FLETCHER (ELORET AND NASA ADVANCED
        SUPERCOMPUTING DIVISION, AMES RESEARCH CENTER).
     S,P,D,F,G,L SHELL GENERAL RYS QUADRATURE PROGRAMMED BY
        MICHEL DUPUIS (PACIFIC NORTHWEST NATIONAL LABORATORY).

          --------------------
          2 ELECTRON INTEGRALS
          --------------------

 THE -PK- OPTION IS OFF, THE INTEGRALS ARE NOT IN SUPERMATRIX FORM.
 STORING   15000 INTEGRALS/RECORD ON DISK, USING 12 BYTES/INTEGRAL.
 TWO ELECTRON INTEGRAL EVALUATION REQUIRES   99128 WORDS OF MEMORY.
 II,JST,KST,LST =  1  1  1  1 NREC =         1 INTLOC =    1
 II,JST,KST,LST =  2  1  1  1 NREC =         1 INTLOC =    2
 II,JST,KST,LST =  3  1  1  1 NREC =         1 INTLOC =   34
 II,JST,KST,LST =  4  1  1  1 NREC =         1 INTLOC =  214
 II,JST,KST,LST =  5  1  1  1 NREC =         1 INTLOC =  776
 II,JST,KST,LST =  6  1  1  1 NREC =         1 INTLOC = 2864
 II,JST,KST,LST =  7  1  1  1 NREC =         1 INTLOC = 7967
 TOTAL NUMBER OF NONZERO TWO-ELECTRON INTEGRALS =               27193
          2 INTEGRAL RECORDS WERE STORED ON DISK FILE  8.
  ...... END OF TWO-ELECTRON INTEGRALS .....
 STEP CPU TIME =     0.02 TOTAL CPU TIME =          0.0 (      0.0 MIN)
 TOTAL WALL CLOCK TIME=          0.0 SECONDS, CPU UTILIZATION IS   100.00%

          ---------------------------
                  UHF SCF CALCULATION
          ---------------------------

     NUCLEAR ENERGY =         0.0000000000
     MAXIT = 30     NPUNCH=  2     MULT=  2
     EXTRAP=T  DAMP=F  SHIFT=F  RSTRCT=F  DIIS=F  SOSCF=T
     DENSITY MATRIX CONV=  1.00E-05
     SOSCF WILL OPTIMIZE      96 ALPHA AND      66 BETA ROTATION ANGLES.
     SOGTOL= 2.500E-01
     MEMORY REQUIRED FOR UHF/ROHF ITERS=     43944 WORDS.

 ITER EX      TOTAL ENERGY        E CHANGE  DENSITY CHANGE    ORB. GRAD 
   1  0      -24.4702532450   -24.4702532450   0.707912233   0.000000000
          ---------------START SECOND ORDER SCF---------------
   2  1      -24.5300132224    -0.0597599773   0.080901528   0.013451374
   3  2      -24.5308415626    -0.0008283402   0.021329368   0.004620623
   4  3      -24.5309041636    -0.0000626010   0.001807936   0.000584387
   5  4      -24.5309062441    -0.0000020806   0.001021373   0.000199481
   6  5      -24.5309063772    -0.0000001331   0.000196560   0.000037521
   7  6      -24.5309063852    -0.0000000080   0.000180482   0.000018596
   8  7      -24.5309063871    -0.0000000019   0.000040798   0.000003321
   9  8      -24.5309063871    -0.0000000000   0.000007923   0.000000627
  10  9      -24.5309063871    -0.0000000000   0.000000406   0.000000141

          -----------------
          DENSITY CONVERGED
          -----------------
     TIME TO FORM FOCK OPERATORS=       0.0 SECONDS (       0.0 SEC/ITER)
     TIME TO SOLVE SCF EQUATIONS=       0.0 SECONDS (       0.0 SEC/ITER)

 FINAL UHF ENERGY IS      -24.5309063871 AFTER  10 ITERATIONS

          --------------------
          SPIN SZ   =    0.500
          S-SQUARED =    0.761
          --------------------

 LZ VALUE ANALYSIS FOR THE MOS
 ----------------------------------------
 MO     1 (    1) HAS LZ(WEIGHT)= 0.00(100.0%) 
 MO     2 (    2) HAS LZ(WEIGHT)= 0.00(100.0%) 
 MO     3 (    3) HAS LZ(WEIGHT)= 0.00(100.0%) 
 MO     4 (    4) HAS LZ(WEIGHT)= 0.00(100.0%) 
 MO     5 (    4) HAS LZ(WEIGHT)= 0.00(100.0%) 
 MO     6 (    5) HAS LZ(WEIGHT)= 0.00(100.0%) 
 MO     7 (    6) HAS LZ(WEIGHT)= 0.00(100.0%) 
 MO     8 (    7) HAS LZ(WEIGHT)= 0.00(100.0%) 
 MO     9 (    7) HAS LZ(WEIGHT)= 0.00(100.0%) 
 MO    10 (    8) HAS LZ(WEIGHT)= 0.00(100.0%) 
 MO    11 (    9) HAS LZ(WEIGHT)= 0.00(100.0%) 
 MO    12 (    9) HAS LZ(WEIGHT)= 0.00(100.0%) 
 MO    13 (   10) HAS LZ(WEIGHT)= 0.00(100.0%) 
 MO    14 (   10) HAS LZ(WEIGHT)= 0.00(100.0%) 
 MO    15 (   11) HAS LZ(WEIGHT)= 0.00(100.0%) 
 MO    16 (   12) HAS LZ(WEIGHT)= 0.00(100.0%) 
 MO    17 (   13) HAS LZ(WEIGHT)= 0.00(100.0%) 
 MO    18 (   13) HAS LZ(WEIGHT)= 0.00(100.0%) 
 MO    19 (   14) HAS LZ(WEIGHT)= 0.00(100.0%) 
 MO    20 (   14) HAS LZ(WEIGHT)= 0.00(100.0%) 
 MO    21 (   15) HAS LZ(WEIGHT)= 0.00(100.0%) 
 MO    22 (   15) HAS LZ(WEIGHT)= 0.00(100.0%) 
 MO    23 (   16) HAS LZ(WEIGHT)= 0.00(100.0%) 
 MO    24 (   16) HAS LZ(WEIGHT)= 0.00(100.0%) 
 MO    25 (   17) HAS LZ(WEIGHT)= 0.00(100.0%) 
 MO    26 (   18) HAS LZ(WEIGHT)= 0.00(100.0%) 
 MO    27 (   19) HAS LZ(WEIGHT)= 0.00(100.0%) 
 MO    28 (   19) HAS LZ(WEIGHT)= 0.00(100.0%) 
 MO    29 (   20) HAS LZ(WEIGHT)= 0.00(100.0%) 
 MO    30 (   20) HAS LZ(WEIGHT)= 0.00(100.0%) 
 MO    31 (   21) HAS LZ(WEIGHT)= 0.00(100.0%) 
 MO    32 (   22) HAS LZ(WEIGHT)=-0.00( 50.0%)  0.00( 50.0%) 
 MO    33 (   22) HAS LZ(WEIGHT)=-0.00( 50.0%)  0.00( 50.0%) 
 MO    34 (   23) HAS LZ(WEIGHT)= 0.00(100.0%) 
 MO    35 (   24) HAS LZ(WEIGHT)= 0.00(100.0%) 

  ----- ALPHA SET ----- 

          ------------
          EIGENVECTORS
          ------------

                      1          2          3          4          5
                   -7.6982    -0.5439    -0.3178     0.0553     0.0553
                     A          A          A          A          A   
    1  B  1  S    0.578836  -0.121438   0.000000  -0.000000   0.000000
    2  B  1  S    0.456985  -0.200194   0.000000  -0.000000   0.000000
    3  B  1  X   -0.000000  -0.000000   0.272154  -0.000000   0.000000
    4  B  1  Y   -0.000000  -0.000000   0.000000  -0.005693   0.200283
    5  B  1  Z   -0.000000  -0.000000   0.000000   0.200283   0.005693
    6  B  1  S    0.002957   0.606290   0.000000  -0.000000   0.000000
    7  B  1  X   -0.000000  -0.000000   0.435671  -0.000000   0.000000
    8  B  1  Y   -0.000000  -0.000000   0.000000  -0.005869   0.206489
    9  B  1  Z   -0.000000  -0.000000   0.000000   0.206489   0.005869
   10  B  1  S    0.001370   0.437016   0.000000  -0.000000   0.000000
   11  B  1  X   -0.000000  -0.000000   0.469982  -0.000000   0.000000
   12  B  1  Y   -0.000000  -0.000000   0.000000  -0.021029   0.739857
   13  B  1  Z   -0.000000  -0.000000   0.000000   0.739857   0.021029
   14  B  1 XX    0.000364   0.021346   0.000000  -0.000000   0.000000
   15  B  1 YY   -0.001599  -0.002862   0.000000  -0.000000   0.000000
   16  B  1 ZZ   -0.001599  -0.002862   0.000000  -0.000000   0.000000
   17  B  1 XY   -0.000000  -0.000000   0.000000  -0.000000   0.000000
   18  B  1 XZ   -0.000000  -0.000000   0.000000  -0.000000   0.000000
   19  B  1 YZ   -0.000000  -0.000000   0.000000  -0.000000   0.000000
   20  B  1 XX   -0.000187   0.073870   0.000000  -0.000000   0.000000
   21  B  1 YY   -0.000728   0.007728   0.000000  -0.000000   0.000000
   22  B  1 ZZ   -0.000728   0.007728   0.000000  -0.000000   0.000000
   23  B  1 XY   -0.000000  -0.000000   0.000000  -0.000000   0.000000
   24  B  1 XZ   -0.000000  -0.000000   0.000000  -0.000000   0.000000
   25  B  1 YZ   -0.000000  -0.000000   0.000000  -0.000000   0.000000
   26  B  1 XXX  -0.000000  -0.000000   0.012098  -0.000000   0.000000
   27  B  1 YYY  -0.000000  -0.000000   0.000000  -0.000428   0.015060
   28  B  1 ZZZ  -0.000000  -0.000000   0.000000   0.015060   0.000428
   29  B  1 XXY  -0.000000  -0.000000   0.000000  -0.000261   0.009170
   30  B  1 XXZ  -0.000000  -0.000000   0.000000   0.009170   0.000261
   31  B  1 YYX  -0.000000  -0.000000   0.002710  -0.000000   0.000000
   32  B  1 YYZ  -0.000000  -0.000000   0.000000   0.006735   0.000191
   33  B  1 ZZX  -0.000000  -0.000000   0.002710  -0.000000   0.000000
   34  B  1 ZZY  -0.000000  -0.000000   0.000000  -0.000191   0.006735
   35  B  1 XYZ  -0.000000  -0.000000   0.000000  -0.000000   0.000000

                      6          7          8          9         10
                    0.2027     0.3968     0.4553     0.4553     0.5412
                     A          A          A          A          A   
    1  B  1  S    0.063516   0.000000  -0.000000   0.000000   0.004817
    2  B  1  S    0.063160   0.000000  -0.000000   0.000000   0.006059
    3  B  1  X   -0.000000  -0.207183  -0.000000   0.000000  -0.000000
    4  B  1  Y   -0.000000   0.000000  -0.238254   0.027566  -0.000000
    5  B  1  Z   -0.000000   0.000000  -0.027566  -0.238254  -0.000000
    6  B  1  S   -2.564598   0.000000  -0.000000   0.000000  -0.082964
    7  B  1  X   -0.000000  -0.902084  -0.000000   0.000000  -0.000000
    8  B  1  Y   -0.000000   0.000000  -0.975526   0.112868  -0.000000
    9  B  1  Z   -0.000000   0.000000  -0.112868  -0.975526  -0.000000
   10  B  1  S    5.481468   0.000000  -0.000000   0.000000   0.136311
   11  B  1  X   -0.000000   1.218741  -0.000000   0.000000  -0.000000
   12  B  1  Y   -0.000000   0.000000   1.077094  -0.124620  -0.000000
   13  B  1  Z   -0.000000   0.000000   0.124620   1.077094  -0.000000
   14  B  1 XX   -0.057309   0.000000  -0.000000   0.000000  -0.008606
   15  B  1 YY   -0.053750   0.000000  -0.000000   0.000000   0.002824
   16  B  1 ZZ   -0.053750   0.000000  -0.000000   0.000000   0.002824
   17  B  1 XY   -0.000000   0.000000  -0.000000   0.000000  -0.000000
   18  B  1 XZ   -0.000000   0.000000  -0.000000   0.000000  -0.000000
   19  B  1 YZ   -0.000000   0.000000  -0.000000   0.000000  -0.000000
   20  B  1 XX   -1.489814   0.000000  -0.000000   0.000000   0.946110
   21  B  1 YY   -1.470102   0.000000  -0.000000   0.000000  -0.556771
   22  B  1 ZZ   -1.470102   0.000000  -0.000000   0.000000  -0.556771
   23  B  1 XY   -0.000000   0.000000  -0.000000   0.000000  -0.000000
   24  B  1 XZ   -0.000000   0.000000  -0.000000   0.000000  -0.000000
   25  B  1 YZ   -0.000000   0.000000  -0.000000   0.000000  -0.000000
   26  B  1 XXX  -0.000000  -0.023525  -0.000000   0.000000  -0.000000
   27  B  1 YYY  -0.000000   0.000000  -0.044734   0.005176  -0.000000
   28  B  1 ZZZ  -0.000000   0.000000  -0.005176  -0.044734  -0.000000
   29  B  1 XXY  -0.000000   0.000000  -0.020217   0.002339  -0.000000
   30  B  1 XXZ  -0.000000   0.000000  -0.002339  -0.020217  -0.000000
   31  B  1 YYX  -0.000000  -0.010760  -0.000000   0.000000  -0.000000
   32  B  1 YYZ  -0.000000   0.000000  -0.002315  -0.020006  -0.000000
   33  B  1 ZZX  -0.000000  -0.010760  -0.000000   0.000000  -0.000000
   34  B  1 ZZY  -0.000000   0.000000  -0.020006   0.002315  -0.000000
   35  B  1 XYZ  -0.000000   0.000000  -0.000000   0.000000  -0.000000

                     11         12         13         14         15
                    0.5448     0.5448     0.5604     0.5604     0.9105
                     A          A          A          A          A   
    1  B  1  S    0.000000   0.000000  -0.000000   0.000000  -0.119943
    2  B  1  S    0.000000   0.000000  -0.000000   0.000000  -0.345004
    3  B  1  X    0.000000   0.000000  -0.000000   0.000000   0.000000
    4  B  1  Y    0.000000   0.000000  -0.000000   0.000000   0.000000
    5  B  1  Z    0.000000   0.000000  -0.000000   0.000000   0.000000
    6  B  1  S    0.000000   0.000000  -0.000000   0.000000  -0.775097
    7  B  1  X    0.000000   0.000000  -0.000000   0.000000   0.000000
    8  B  1  Y    0.000000   0.000000  -0.000000   0.000000   0.000000
    9  B  1  Z    0.000000   0.000000  -0.000000   0.000000   0.000000
   10  B  1  S    0.000000   0.000000  -0.000000   0.000000   5.225401
   11  B  1  X    0.000000   0.000000  -0.000000   0.000000   0.000000
   12  B  1  Y    0.000000   0.000000  -0.000000   0.000000   0.000000
   13  B  1  Z    0.000000   0.000000  -0.000000   0.000000   0.000000
   14  B  1 XX    0.000000   0.000000  -0.000000   0.000000  -0.078576
   15  B  1 YY    0.000000   0.000000   0.000111  -0.018895  -0.080271
   16  B  1 ZZ    0.000000   0.000000  -0.000111   0.018895  -0.080271
   17  B  1 XY   -0.007578  -0.007107  -0.000000   0.000000   0.000000
   18  B  1 XZ    0.007107  -0.007578  -0.000000   0.000000   0.000000
   19  B  1 YZ    0.000000   0.000000  -0.021818  -0.000129   0.000000
   20  B  1 XX    0.000000   0.000000  -0.000000   0.000000  -2.180209
   21  B  1 YY    0.000000   0.000000  -0.005154   0.874500  -2.155929
   22  B  1 ZZ    0.000000   0.000000   0.005154  -0.874500  -2.155929
   23  B  1 XY    0.732849   0.687303  -0.000000   0.000000   0.000000
   24  B  1 XZ   -0.687303   0.732849  -0.000000   0.000000   0.000000
   25  B  1 YZ    0.000000   0.000000   1.009786   0.005952   0.000000
   26  B  1 XXX   0.000000   0.000000  -0.000000   0.000000   0.000000
   27  B  1 YYY   0.000000   0.000000  -0.000000   0.000000   0.000000
   28  B  1 ZZZ   0.000000   0.000000  -0.000000   0.000000   0.000000
   29  B  1 XXY   0.000000   0.000000  -0.000000   0.000000   0.000000
   30  B  1 XXZ   0.000000   0.000000  -0.000000   0.000000   0.000000
   31  B  1 YYX   0.000000   0.000000  -0.000000   0.000000   0.000000
   32  B  1 YYZ   0.000000   0.000000  -0.000000   0.000000   0.000000
   33  B  1 ZZX   0.000000   0.000000  -0.000000   0.000000   0.000000
   34  B  1 ZZY   0.000000   0.000000  -0.000000   0.000000   0.000000
   35  B  1 XYZ   0.000000   0.000000  -0.000000   0.000000   0.000000

                     16         17         18         19         20
                    1.9244     1.9414     1.9414     1.9537     1.9537
                     A          A          A          A          A   
    1  B  1  S    0.000000   0.000000   0.000000   0.000000  -0.000000
    2  B  1  S    0.000000   0.000000   0.000000   0.000000  -0.000000
    3  B  1  X    0.890518   0.000000   0.000000   0.000000  -0.000000
    4  B  1  Y    0.000000  -0.118374  -0.866956   0.000000  -0.000000
    5  B  1  Z    0.000000  -0.866956   0.118374   0.000000  -0.000000
    6  B  1  S    0.000000   0.000000   0.000000   0.000000  -0.000000
    7  B  1  X    0.261145   0.000000   0.000000   0.000000  -0.000000
    8  B  1  Y    0.000000  -0.046929  -0.343699   0.000000  -0.000000
    9  B  1  Z    0.000000  -0.343699   0.046929   0.000000  -0.000000
   10  B  1  S    0.000000   0.000000   0.000000   0.000000  -0.000000
   11  B  1  X    0.474616   0.000000   0.000000   0.000000  -0.000000
   12  B  1  Y    0.000000  -0.060704  -0.444591   0.000000  -0.000000
   13  B  1  Z    0.000000  -0.444591   0.060704   0.000000  -0.000000
   14  B  1 XX    0.000000   0.000000   0.000000   0.000000  -0.000000
   15  B  1 YY    0.000000   0.000000   0.000000   0.000000  -0.000000
   16  B  1 ZZ    0.000000   0.000000   0.000000   0.000000  -0.000000
   17  B  1 XY    0.000000   0.000000   0.000000   0.000000  -0.000000
   18  B  1 XZ    0.000000   0.000000   0.000000   0.000000  -0.000000
   19  B  1 YZ    0.000000   0.000000   0.000000   0.000000  -0.000000
   20  B  1 XX    0.000000   0.000000   0.000000   0.000000  -0.000000
   21  B  1 YY    0.000000   0.000000   0.000000   0.000000  -0.000000
   22  B  1 ZZ    0.000000   0.000000   0.000000   0.000000  -0.000000
   23  B  1 XY    0.000000   0.000000   0.000000   0.000000  -0.000000
   24  B  1 XZ    0.000000   0.000000   0.000000   0.000000  -0.000000
   25  B  1 YZ    0.000000   0.000000   0.000000   0.000000  -0.000000
   26  B  1 XXX  -0.791854   0.000000   0.000000   0.000000  -0.000000
   27  B  1 YYY   0.000000   0.144547   1.058641   0.072479  -0.787240
   28  B  1 ZZZ   0.000000   1.058641  -0.144547  -0.787240  -0.072479
   29  B  1 XXY   0.000000   0.028213   0.206631   0.000000  -0.000000
   30  B  1 XXZ   0.000000   0.206631  -0.028213   0.000000  -0.000000
   31  B  1 YYX  -0.505329   0.000000   0.000000   0.000000  -0.000000
   32  B  1 YYZ   0.000000   0.473439  -0.064643   1.056193   0.097241
   33  B  1 ZZX  -0.505329   0.000000   0.000000   0.000000  -0.000000
   34  B  1 ZZY   0.000000   0.064643   0.473439  -0.097241   1.056193
   35  B  1 XYZ   0.000000   0.000000   0.000000   0.000000  -0.000000

                     21         22         23         24         25
                    1.9613     1.9613     1.9666     1.9666     1.9679
                     A          A          A          A          A   
    1  B  1  S    0.000000   0.000000   0.000000   0.000000  -0.000000
    2  B  1  S    0.000000   0.000000   0.000000   0.000000  -0.000000
    3  B  1  X    0.000000   0.000000   0.000000   0.000000  -0.125241
    4  B  1  Y    0.000000   0.000000  -0.126972   0.125323  -0.000000
    5  B  1  Z    0.000000   0.000000  -0.125323  -0.126972  -0.000000
    6  B  1  S    0.000000   0.000000   0.000000   0.000000  -0.000000
    7  B  1  X    0.000000   0.000000   0.000000   0.000000  -0.024866
    8  B  1  Y    0.000000   0.000000  -0.043163   0.042603  -0.000000
    9  B  1  Z    0.000000   0.000000  -0.042603  -0.043163  -0.000000
   10  B  1  S    0.000000   0.000000   0.000000   0.000000  -0.000000
   11  B  1  X    0.000000   0.000000   0.000000   0.000000  -0.066962
   12  B  1  Y    0.000000   0.000000  -0.065334   0.064486  -0.000000
   13  B  1  Z    0.000000   0.000000  -0.064486  -0.065334  -0.000000
   14  B  1 XX    0.000000   0.000000   0.000000   0.000000  -0.000000
   15  B  1 YY    0.000000   0.000000   0.000000   0.000000  -0.000000
   16  B  1 ZZ    0.000000   0.000000   0.000000   0.000000  -0.000000
   17  B  1 XY    0.000000   0.000000   0.000000   0.000000  -0.000000
   18  B  1 XZ    0.000000   0.000000   0.000000   0.000000  -0.000000
   19  B  1 YZ    0.000000   0.000000   0.000000   0.000000  -0.000000
   20  B  1 XX    0.000000   0.000000   0.000000   0.000000  -0.000000
   21  B  1 YY    0.000000   0.000000   0.000000   0.000000  -0.000000
   22  B  1 ZZ    0.000000   0.000000   0.000000   0.000000  -0.000000
   23  B  1 XY    0.000000   0.000000   0.000000   0.000000  -0.000000
   24  B  1 XZ    0.000000   0.000000   0.000000   0.000000  -0.000000
   25  B  1 YZ    0.000000   0.000000   0.000000   0.000000  -0.000000
   26  B  1 XXX   0.000000   0.000000   0.000000   0.000000   1.111183
   27  B  1 YYY   0.000000   0.000000  -0.295569   0.291731  -0.000000
   28  B  1 ZZZ   0.000000   0.000000  -0.291731  -0.295569  -0.000000
   29  B  1 XXY   0.000000   0.000000   0.823338  -0.812646  -0.000000
   30  B  1 XXZ   0.000000   0.000000   0.812646   0.823338  -0.000000
   31  B  1 YYX   0.866019  -0.003354   0.000000   0.000000  -0.610823
   32  B  1 YYZ   0.000000   0.000000  -0.130466  -0.132182  -0.000000
   33  B  1 ZZX  -0.866019   0.003354   0.000000   0.000000  -0.610823
   34  B  1 ZZY   0.000000   0.000000  -0.132182   0.130466  -0.000000
   35  B  1 XYZ   0.003873   0.999993   0.000000   0.000000  -0.000000

                     26         27         28         29         30
                    2.3248     2.3269     2.3269     2.3338     2.3338
                     A          A          A          A          A   
    1  B  1  S    0.000919   0.000000   0.000000   0.000000   0.000000
    2  B  1  S   -0.001150   0.000000   0.000000   0.000000   0.000000
    3  B  1  X    0.000000   0.000000   0.000000   0.000000   0.000000
    4  B  1  Y    0.000000   0.000000   0.000000   0.000000   0.000000
    5  B  1  Z    0.000000   0.000000   0.000000   0.000000   0.000000
    6  B  1  S    0.003061   0.000000   0.000000   0.000000   0.000000
    7  B  1  X    0.000000   0.000000   0.000000   0.000000   0.000000
    8  B  1  Y    0.000000   0.000000   0.000000   0.000000   0.000000
    9  B  1  Z    0.000000   0.000000   0.000000   0.000000   0.000000
   10  B  1  S    0.008006   0.000000   0.000000   0.000000   0.000000
   11  B  1  X    0.000000   0.000000   0.000000   0.000000   0.000000
   12  B  1  Y    0.000000   0.000000   0.000000   0.000000   0.000000
   13  B  1  Z    0.000000   0.000000   0.000000   0.000000   0.000000
   14  B  1 XX    1.117363   0.000000   0.000000   0.000000   0.000000
   15  B  1 YY   -0.569742   0.000000   0.000000   0.012358  -0.973917
   16  B  1 ZZ   -0.569742   0.000000   0.000000  -0.012358   0.973917
   17  B  1 XY    0.000000   1.111735   0.171183   0.000000   0.000000
   18  B  1 XZ    0.000000  -0.171183   1.111735   0.000000   0.000000
   19  B  1 YZ    0.000000   0.000000   0.000000   1.124583   0.014270
   20  B  1 XX   -0.514793   0.000000   0.000000   0.000000   0.000000
   21  B  1 YY    0.248794   0.000000   0.000000  -0.005446   0.429206
   22  B  1 ZZ    0.248794   0.000000   0.000000   0.005446  -0.429206
   23  B  1 XY    0.000000  -0.499987  -0.076987   0.000000   0.000000
   24  B  1 XZ    0.000000   0.076987  -0.499987   0.000000   0.000000
   25  B  1 YZ    0.000000   0.000000   0.000000  -0.495605  -0.006289
   26  B  1 XXX   0.000000   0.000000   0.000000   0.000000   0.000000
   27  B  1 YYY   0.000000   0.000000   0.000000   0.000000   0.000000
   28  B  1 ZZZ   0.000000   0.000000   0.000000   0.000000   0.000000
   29  B  1 XXY   0.000000   0.000000   0.000000   0.000000   0.000000
   30  B  1 XXZ   0.000000   0.000000   0.000000   0.000000   0.000000
   31  B  1 YYX   0.000000   0.000000   0.000000   0.000000   0.000000
   32  B  1 YYZ   0.000000   0.000000   0.000000   0.000000   0.000000
   33  B  1 ZZX   0.000000   0.000000   0.000000   0.000000   0.000000
   34  B  1 ZZY   0.000000   0.000000   0.000000   0.000000   0.000000
   35  B  1 XYZ   0.000000   0.000000   0.000000   0.000000   0.000000

                     31         32         33         34         35
                    5.7005     6.1207     6.1207     6.1384    20.3132
                     A          A          A          A          A   
    1  B  1  S   -0.088918  -0.000000  -0.000000   0.000000   2.318646
    2  B  1  S   -1.881696  -0.000000  -0.000000   0.000000  -4.093962
    3  B  1  X    0.000000  -0.000000  -0.000000  -3.864453  -0.000000
    4  B  1  Y    0.000000  -1.304902  -3.641676   0.000000  -0.000000
    5  B  1  Z    0.000000  -3.641676   1.304902   0.000000  -0.000000
    6  B  1  S    7.472537  -0.000000  -0.000000   0.000000   5.848975
    7  B  1  X    0.000000   0.000000   0.000000  14.641215  -0.000000
    8  B  1  Y    0.000000   4.938141  13.781192  -0.000000  -0.000000
    9  B  1  Z    0.000000  13.781192  -4.938141  -0.000000  -0.000000
   10  B  1  S    3.152025  -0.000000  -0.000000   0.000000   3.578570
   11  B  1  X    0.000000  -0.000000  -0.000000  -0.969423  -0.000000
   12  B  1  Y    0.000000  -0.327476  -0.913910   0.000000  -0.000000
   13  B  1  Z    0.000000  -0.913910   0.327476   0.000000  -0.000000
   14  B  1 XX   -3.198720  -0.000000  -0.000000   0.000000  -2.454621
   15  B  1 YY   -3.194761  -0.000000  -0.000000   0.000000  -2.454787
   16  B  1 ZZ   -3.194761  -0.000000  -0.000000   0.000000  -2.454787
   17  B  1 XY    0.000000  -0.000000  -0.000000   0.000000  -0.000000
   18  B  1 XZ    0.000000  -0.000000  -0.000000   0.000000  -0.000000
   19  B  1 YZ    0.000000  -0.000000  -0.000000   0.000000  -0.000000
   20  B  1 XX   -1.777570  -0.000000  -0.000000   0.000000  -1.880486
   21  B  1 YY   -1.780007  -0.000000  -0.000000   0.000000  -1.880373
   22  B  1 ZZ   -1.780007  -0.000000  -0.000000   0.000000  -1.880373
   23  B  1 XY    0.000000  -0.000000  -0.000000   0.000000  -0.000000
   24  B  1 XZ    0.000000  -0.000000  -0.000000   0.000000  -0.000000
   25  B  1 YZ    0.000000  -0.000000  -0.000000   0.000000  -0.000000
   26  B  1 XXX   0.000000  -0.000000  -0.000000  -7.732580  -0.000000
   27  B  1 YYY   0.000000  -2.606655  -7.274563   0.000000  -0.000000
   28  B  1 ZZZ   0.000000  -7.274563   2.606655   0.000000  -0.000000
   29  B  1 XXY   0.000000  -1.166024  -3.254100   0.000000  -0.000000
   30  B  1 XXZ   0.000000  -3.254100   1.166024   0.000000  -0.000000
   31  B  1 YYX   0.000000  -0.000000  -0.000000  -3.457234  -0.000000
   32  B  1 YYZ   0.000000  -3.253284   1.165732   0.000000  -0.000000
   33  B  1 ZZX   0.000000  -0.000000  -0.000000  -3.457234  -0.000000
   34  B  1 ZZY   0.000000  -1.165732  -3.253284   0.000000  -0.000000
   35  B  1 XYZ   0.000000  -0.000000  -0.000000   0.000000  -0.000000

 LZ VALUE ANALYSIS FOR THE MOS
 ----------------------------------------
 MO     1 (    1) HAS LZ(WEIGHT)= 0.00(100.0%) 
 MO     2 (    2) HAS LZ(WEIGHT)= 0.00(100.0%) 
 MO     3 (    3) HAS LZ(WEIGHT)= 0.00(100.0%) 
 MO     4 (    3) HAS LZ(WEIGHT)= 0.00(100.0%) 
 MO     5 (    4) HAS LZ(WEIGHT)= 0.00(100.0%) 
 MO     6 (    5) HAS LZ(WEIGHT)= 0.00(100.0%) 
 MO     7 (    6) HAS LZ(WEIGHT)= 0.00(100.0%) 
 MO     8 (    6) HAS LZ(WEIGHT)= 0.00(100.0%) 
 MO     9 (    7) HAS LZ(WEIGHT)= 0.00(100.0%) 
 MO    10 (    8) HAS LZ(WEIGHT)= 0.00(100.0%) 
 MO    11 (    8) HAS LZ(WEIGHT)= 0.00(100.0%) 
 MO    12 (    9) HAS LZ(WEIGHT)= 0.00(100.0%) 
 MO    13 (    9) HAS LZ(WEIGHT)= 0.00(100.0%) 
 MO    14 (   10) HAS LZ(WEIGHT)= 0.00(100.0%) 
 MO    15 (   11) HAS LZ(WEIGHT)= 0.00(100.0%) 
 MO    16 (   12) HAS LZ(WEIGHT)= 0.00(100.0%) 
 MO    17 (   12) HAS LZ(WEIGHT)= 0.00(100.0%) 
 MO    18 (   13) HAS LZ(WEIGHT)= 0.00(100.0%) 
 MO    19 (   13) HAS LZ(WEIGHT)= 0.00(100.0%) 
 MO    20 (   14) HAS LZ(WEIGHT)= 0.00(100.0%) 
 MO    21 (   14) HAS LZ(WEIGHT)= 0.00(100.0%) 
 MO    22 (   15) HAS LZ(WEIGHT)= 0.00(100.0%) 
 MO    23 (   16) HAS LZ(WEIGHT)= 0.00(100.0%) 
 MO    24 (   16) HAS LZ(WEIGHT)= 0.00(100.0%) 
 MO    25 (   17) HAS LZ(WEIGHT)= 0.00(100.0%) 
 MO    26 (   18) HAS LZ(WEIGHT)= 0.00(100.0%) 
 MO    27 (   18) HAS LZ(WEIGHT)= 0.00(100.0%) 
 MO    28 (   19) HAS LZ(WEIGHT)= 0.00(100.0%) 
 MO    29 (   19) HAS LZ(WEIGHT)= 0.00(100.0%) 
 MO    30 (   20) HAS LZ(WEIGHT)= 0.00(100.0%) 
 MO    31 (   21) HAS LZ(WEIGHT)= 0.00(100.0%) 
 MO    32 (   22) HAS LZ(WEIGHT)=-0.00( 50.0%)  0.00( 50.0%) 
 MO    33 (   22) HAS LZ(WEIGHT)=-0.00( 50.0%)  0.00( 50.0%) 
 MO    34 (   23) HAS LZ(WEIGHT)= 0.00(100.0%) 
 MO    35 (   24) HAS LZ(WEIGHT)= 0.00(100.0%) 

  ----- BETA SET ----- 

          ------------
          EIGENVECTORS
          ------------

                      1          2          3          4          5
                   -7.6829    -0.4444     0.0673     0.0673     0.1142
                     A          A          A          A          A   
    1  B  1  S    0.579794  -0.116700  -0.000000  -0.000000  -0.000000
    2  B  1  S    0.457863  -0.193716  -0.000000  -0.000000  -0.000000
    3  B  1  X   -0.000000  -0.000000  -0.000000  -0.000000   0.189115
    4  B  1  Y   -0.000000  -0.000000  -0.126949   0.148996  -0.000000
    5  B  1  Z   -0.000000  -0.000000   0.148996   0.126949  -0.000000
    6  B  1  S   -0.001448   0.531949  -0.000000  -0.000000  -0.000000
    7  B  1  X   -0.000000  -0.000000  -0.000000  -0.000000   0.122104
    8  B  1  Y   -0.000000  -0.000000  -0.117449   0.137846  -0.000000
    9  B  1  Z   -0.000000  -0.000000   0.137846   0.117449  -0.000000
   10  B  1  S   -0.002010   0.564417  -0.000000  -0.000000  -0.000000
   11  B  1  X   -0.000000  -0.000000  -0.000000  -0.000000   0.820337
   12  B  1  Y   -0.000000  -0.000000  -0.495790   0.581892  -0.000000
   13  B  1  Z   -0.000000  -0.000000   0.581892   0.495790  -0.000000
   14  B  1 XX   -0.000887  -0.011159  -0.000000  -0.000000  -0.000000
   15  B  1 YY    0.000333   0.009698  -0.000000  -0.000000  -0.000000
   16  B  1 ZZ    0.000333   0.009698  -0.000000  -0.000000  -0.000000
   17  B  1 XY   -0.000000  -0.000000  -0.000000  -0.000000  -0.000000
   18  B  1 XZ   -0.000000  -0.000000  -0.000000  -0.000000  -0.000000
   19  B  1 YZ   -0.000000  -0.000000  -0.000000  -0.000000  -0.000000
   20  B  1 XX    0.001215  -0.032638  -0.000000  -0.000000  -0.000000
   21  B  1 YY    0.000892   0.021552  -0.000000  -0.000000  -0.000000
   22  B  1 ZZ    0.000892   0.021552  -0.000000  -0.000000  -0.000000
   23  B  1 XY   -0.000000  -0.000000  -0.000000  -0.000000  -0.000000
   24  B  1 XZ   -0.000000  -0.000000  -0.000000  -0.000000  -0.000000
   25  B  1 YZ   -0.000000  -0.000000  -0.000000  -0.000000  -0.000000
   26  B  1 XXX  -0.000000  -0.000000  -0.000000  -0.000000   0.000489
   27  B  1 YYY  -0.000000  -0.000000  -0.016100   0.018896  -0.000000
   28  B  1 ZZZ  -0.000000  -0.000000   0.018896   0.016100  -0.000000
   29  B  1 XXY  -0.000000  -0.000000   0.004232  -0.004967  -0.000000
   30  B  1 XXZ  -0.000000  -0.000000  -0.004967  -0.004232  -0.000000
   31  B  1 YYX  -0.000000  -0.000000  -0.000000  -0.000000   0.017542
   32  B  1 YYZ  -0.000000  -0.000000   0.008451   0.007200  -0.000000
   33  B  1 ZZX  -0.000000  -0.000000  -0.000000  -0.000000   0.017542
   34  B  1 ZZY  -0.000000  -0.000000  -0.007200   0.008451  -0.000000
   35  B  1 XYZ  -0.000000  -0.000000  -0.000000  -0.000000  -0.000000

                      6          7          8          9         10
                    0.2163     0.4670     0.4670     0.5105     0.5626
                     A          A          A          A          A   
    1  B  1  S    0.064929   0.000000  -0.000000   0.000000  -0.000000
    2  B  1  S    0.063598   0.000000  -0.000000   0.000000  -0.000000
    3  B  1  X    0.000000   0.000000  -0.000000  -0.253926  -0.000000
    4  B  1  Y    0.000000  -0.243310   0.011534   0.000000  -0.000000
    5  B  1  Z    0.000000  -0.011534  -0.243310   0.000000  -0.000000
    6  B  1  S   -2.599693   0.000000  -0.000000   0.000000  -0.000000
    7  B  1  X    0.000000   0.000000  -0.000000  -0.974881  -0.000000
    8  B  1  Y    0.000000  -0.979025   0.046409   0.000000  -0.000000
    9  B  1  Z    0.000000  -0.046409  -0.979025   0.000000  -0.000000
   10  B  1  S    5.559817   0.000000  -0.000000   0.000000  -0.000000
   11  B  1  X    0.000000   0.000000  -0.000000   1.028217  -0.000000
   12  B  1  Y    0.000000   1.066932  -0.050576   0.000000  -0.000000
   13  B  1  Z    0.000000   0.050576   1.066932   0.000000  -0.000000
   14  B  1 XX   -0.045474   0.000000  -0.000000   0.000000  -0.000000
   15  B  1 YY   -0.061091   0.000000  -0.000000   0.000000  -0.000384
   16  B  1 ZZ   -0.061091   0.000000  -0.000000   0.000000   0.000384
   17  B  1 XY    0.000000   0.000000  -0.000000   0.000000  -0.000000
   18  B  1 XZ    0.000000   0.000000  -0.000000   0.000000  -0.000000
   19  B  1 YZ    0.000000   0.000000  -0.000000   0.000000  -0.023161
   20  B  1 XX   -1.520559   0.000000  -0.000000   0.000000  -0.000000
   21  B  1 YY   -1.514850   0.000000  -0.000000   0.000000   0.016765
   22  B  1 ZZ   -1.514850   0.000000  -0.000000   0.000000  -0.016765
   23  B  1 XY    0.000000   0.000000  -0.000000   0.000000  -0.000000
   24  B  1 XZ    0.000000   0.000000  -0.000000   0.000000  -0.000000
   25  B  1 YZ    0.000000   0.000000  -0.000000   0.000000   1.010211
   26  B  1 XXX   0.000000   0.000000  -0.000000  -0.045926  -0.000000
   27  B  1 YYY   0.000000  -0.057108   0.002707   0.000000  -0.000000
   28  B  1 ZZZ   0.000000  -0.002707  -0.057108   0.000000  -0.000000
   29  B  1 XXY   0.000000  -0.010810   0.000512   0.000000  -0.000000
   30  B  1 XXZ   0.000000  -0.000512  -0.010810   0.000000  -0.000000
   31  B  1 YYX   0.000000   0.000000  -0.000000  -0.036841  -0.000000
   32  B  1 YYZ   0.000000  -0.001211  -0.025539   0.000000  -0.000000
   33  B  1 ZZX   0.000000   0.000000  -0.000000  -0.036841  -0.000000
   34  B  1 ZZY   0.000000  -0.025539   0.001211   0.000000  -0.000000
   35  B  1 XYZ   0.000000   0.000000  -0.000000   0.000000  -0.000000

                     11         12         13         14         15
                    0.5626     0.5926     0.5926     0.6036     0.9344
                     A          A          A          A          A   
    1  B  1  S    0.000000  -0.000000   0.000000  -0.009435  -0.121029
    2  B  1  S    0.000000  -0.000000   0.000000  -0.019742  -0.347763
    3  B  1  X    0.000000  -0.000000   0.000000  -0.000000   0.000000
    4  B  1  Y    0.000000  -0.000000   0.000000  -0.000000   0.000000
    5  B  1  Z    0.000000  -0.000000   0.000000  -0.000000   0.000000
    6  B  1  S    0.000000  -0.000000   0.000000  -0.002195  -0.722677
    7  B  1  X    0.000000  -0.000000   0.000000  -0.000000   0.000000
    8  B  1  Y    0.000000  -0.000000   0.000000  -0.000000   0.000000
    9  B  1  Z    0.000000  -0.000000   0.000000  -0.000000   0.000000
   10  B  1  S    0.000000  -0.000000   0.000000   0.199178   5.126914
   11  B  1  X    0.000000  -0.000000   0.000000  -0.000000   0.000000
   12  B  1  Y    0.000000  -0.000000   0.000000  -0.000000   0.000000
   13  B  1  Z    0.000000  -0.000000   0.000000  -0.000000   0.000000
   14  B  1 XX    0.000000  -0.000000   0.000000  -0.032954  -0.098359
   15  B  1 YY   -0.020058  -0.000000   0.000000   0.013302  -0.068779
   16  B  1 ZZ    0.020058  -0.000000   0.000000   0.013302  -0.068779
   17  B  1 XY    0.000000  -0.024019   0.014133  -0.000000   0.000000
   18  B  1 XZ    0.000000  -0.014133  -0.024019  -0.000000   0.000000
   19  B  1 YZ    0.000444  -0.000000   0.000000  -0.000000   0.000000
   20  B  1 XX    0.000000  -0.000000   0.000000   0.938852  -2.161993
   21  B  1 YY    0.874868  -0.000000   0.000000  -0.579511  -2.122252
   22  B  1 ZZ   -0.874868  -0.000000   0.000000  -0.579511  -2.122252
   23  B  1 XY    0.000000   0.872607  -0.513442  -0.000000   0.000000
   24  B  1 XZ    0.000000   0.513442   0.872607  -0.000000   0.000000
   25  B  1 YZ   -0.019358  -0.000000   0.000000  -0.000000   0.000000
   26  B  1 XXX   0.000000  -0.000000   0.000000  -0.000000   0.000000
   27  B  1 YYY   0.000000  -0.000000   0.000000  -0.000000   0.000000
   28  B  1 ZZZ   0.000000  -0.000000   0.000000  -0.000000   0.000000
   29  B  1 XXY   0.000000  -0.000000   0.000000  -0.000000   0.000000
   30  B  1 XXZ   0.000000  -0.000000   0.000000  -0.000000   0.000000
   31  B  1 YYX   0.000000  -0.000000   0.000000  -0.000000   0.000000
   32  B  1 YYZ   0.000000  -0.000000   0.000000  -0.000000   0.000000
   33  B  1 ZZX   0.000000  -0.000000   0.000000  -0.000000   0.000000
   34  B  1 ZZY   0.000000  -0.000000   0.000000  -0.000000   0.000000
   35  B  1 XYZ   0.000000  -0.000000   0.000000  -0.000000   0.000000

                     16         17         18         19         20
                    1.9494     1.9494     1.9554     1.9554     1.9866
                     A          A          A          A          A   
    1  B  1  S   -0.000000  -0.000000  -0.000000   0.000000  -0.000000
    2  B  1  S   -0.000000  -0.000000  -0.000000   0.000000  -0.000000
    3  B  1  X   -0.000000  -0.000000  -0.000000   0.000000  -0.000000
    4  B  1  Y    0.124945  -0.866370  -0.000000   0.000000  -0.000000
    5  B  1  Z   -0.866370  -0.124945  -0.000000   0.000000  -0.000000
    6  B  1  S   -0.000000  -0.000000  -0.000000   0.000000  -0.000000
    7  B  1  X   -0.000000  -0.000000  -0.000000   0.000000  -0.000000
    8  B  1  Y    0.049454  -0.342915  -0.000000   0.000000  -0.000000
    9  B  1  Z   -0.342915  -0.049454  -0.000000   0.000000  -0.000000
   10  B  1  S   -0.000000  -0.000000  -0.000000   0.000000  -0.000000
   11  B  1  X   -0.000000  -0.000000  -0.000000   0.000000  -0.000000
   12  B  1  Y    0.063543  -0.440609  -0.000000   0.000000  -0.000000
   13  B  1  Z   -0.440609  -0.063543  -0.000000   0.000000  -0.000000
   14  B  1 XX   -0.000000  -0.000000  -0.000000   0.000000  -0.000000
   15  B  1 YY   -0.000000  -0.000000  -0.000000   0.000000  -0.000000
   16  B  1 ZZ   -0.000000  -0.000000  -0.000000   0.000000  -0.000000
   17  B  1 XY   -0.000000  -0.000000  -0.000000   0.000000  -0.000000
   18  B  1 XZ   -0.000000  -0.000000  -0.000000   0.000000  -0.000000
   19  B  1 YZ   -0.000000  -0.000000  -0.000000   0.000000  -0.000000
   20  B  1 XX   -0.000000  -0.000000  -0.000000   0.000000  -0.000000
   21  B  1 YY   -0.000000  -0.000000  -0.000000   0.000000  -0.000000
   22  B  1 ZZ   -0.000000  -0.000000  -0.000000   0.000000  -0.000000
   23  B  1 XY   -0.000000  -0.000000  -0.000000   0.000000  -0.000000
   24  B  1 XZ   -0.000000  -0.000000  -0.000000   0.000000  -0.000000
   25  B  1 YZ   -0.000000  -0.000000  -0.000000   0.000000  -0.000000
   26  B  1 XXX  -0.000000  -0.000000  -0.000000   0.000000  -0.000000
   27  B  1 YYY  -0.152948   1.060541   0.184665  -0.768700  -0.000000
   28  B  1 ZZZ   1.060541   0.152948  -0.768700  -0.184665  -0.000000
   29  B  1 XXY  -0.027256   0.188997  -0.000000   0.000000  -0.000000
   30  B  1 XXZ   0.188997   0.027256  -0.000000   0.000000  -0.000000
   31  B  1 YYX  -0.000000  -0.000000  -0.000000   0.000000  -0.860510
   32  B  1 YYZ   0.474288   0.068400   1.031319   0.247754  -0.000000
   33  B  1 ZZX  -0.000000  -0.000000  -0.000000   0.000000   0.860510
   34  B  1 ZZY  -0.068400   0.474288  -0.247754   1.031319  -0.000000
   35  B  1 XYZ  -0.000000  -0.000000  -0.000000   0.000000  -0.112675

                     21         22         23         24         25
                    1.9866     1.9896     2.0085     2.0085     2.0223
                     A          A          A          A          A   
    1  B  1  S   -0.000000   0.000000   0.000000   0.000000  -0.000000
    2  B  1  S   -0.000000   0.000000   0.000000   0.000000  -0.000000
    3  B  1  X   -0.000000   0.759191   0.000000   0.000000  -0.490671
    4  B  1  Y   -0.000000   0.000000  -0.133123  -0.126132  -0.000000
    5  B  1  Z   -0.000000   0.000000   0.126132  -0.133123  -0.000000
    6  B  1  S   -0.000000   0.000000   0.000000   0.000000  -0.000000
    7  B  1  X   -0.000000   0.274627   0.000000   0.000000  -0.160127
    8  B  1  Y   -0.000000   0.000000  -0.044214  -0.041892  -0.000000
    9  B  1  Z   -0.000000   0.000000   0.041892  -0.044214  -0.000000
   10  B  1  S   -0.000000   0.000000   0.000000   0.000000  -0.000000
   11  B  1  X   -0.000000   0.376693   0.000000   0.000000  -0.250071
   12  B  1  Y   -0.000000   0.000000  -0.070853  -0.067132  -0.000000
   13  B  1  Z   -0.000000   0.000000   0.067132  -0.070853  -0.000000
   14  B  1 XX   -0.000000   0.000000   0.000000   0.000000  -0.000000
   15  B  1 YY   -0.000000   0.000000   0.000000   0.000000  -0.000000
   16  B  1 ZZ   -0.000000   0.000000   0.000000   0.000000  -0.000000
   17  B  1 XY   -0.000000   0.000000   0.000000   0.000000  -0.000000
   18  B  1 XZ   -0.000000   0.000000   0.000000   0.000000  -0.000000
   19  B  1 YZ   -0.000000   0.000000   0.000000   0.000000  -0.000000
   20  B  1 XX   -0.000000   0.000000   0.000000   0.000000  -0.000000
   21  B  1 YY   -0.000000   0.000000   0.000000   0.000000  -0.000000
   22  B  1 ZZ   -0.000000   0.000000   0.000000   0.000000  -0.000000
   23  B  1 XY   -0.000000   0.000000   0.000000   0.000000  -0.000000
   24  B  1 XZ   -0.000000   0.000000   0.000000   0.000000  -0.000000
   25  B  1 YZ   -0.000000   0.000000   0.000000   0.000000  -0.000000
   26  B  1 XXX  -0.000000  -0.240963   0.000000   0.000000   1.355013
   27  B  1 YYY  -0.000000   0.000000  -0.286777  -0.271718  -0.000000
   28  B  1 ZZZ  -0.000000   0.000000   0.271718  -0.286777  -0.000000
   29  B  1 XXY  -0.000000   0.000000   0.843326   0.799042  -0.000000
   30  B  1 XXZ  -0.000000   0.000000  -0.799042   0.843326  -0.000000
   31  B  1 YYX  -0.097580  -0.721173   0.000000   0.000000  -0.328450
   32  B  1 YYZ  -0.000000   0.000000   0.121516  -0.128250  -0.000000
   33  B  1 ZZX   0.097580  -0.721173   0.000000   0.000000  -0.328450
   34  B  1 ZZY  -0.000000   0.000000  -0.128250  -0.121516  -0.000000
   35  B  1 XYZ   0.993632   0.000000   0.000000   0.000000  -0.000000

                     26         27         28         29         30
                    2.3406     2.3406     2.3832     2.3832     2.3985
                     A          A          A          A          A   
    1  B  1  S    0.000000   0.000000   0.000000  -0.000000  -0.004360
    2  B  1  S    0.000000   0.000000   0.000000  -0.000000  -0.016074
    3  B  1  X    0.000000   0.000000   0.000000  -0.000000   0.000000
    4  B  1  Y    0.000000   0.000000   0.000000  -0.000000   0.000000
    5  B  1  Z    0.000000   0.000000   0.000000  -0.000000   0.000000
    6  B  1  S    0.000000   0.000000   0.000000  -0.000000   0.044973
    7  B  1  X    0.000000   0.000000   0.000000  -0.000000   0.000000
    8  B  1  Y    0.000000   0.000000   0.000000  -0.000000   0.000000
    9  B  1  Z    0.000000   0.000000   0.000000  -0.000000   0.000000
   10  B  1  S    0.000000   0.000000   0.000000  -0.000000   0.062292
   11  B  1  X    0.000000   0.000000   0.000000  -0.000000   0.000000
   12  B  1  Y    0.000000   0.000000   0.000000  -0.000000   0.000000
   13  B  1  Z    0.000000   0.000000   0.000000  -0.000000   0.000000
   14  B  1 XX    0.000000   0.000000   0.000000  -0.000000   1.111688
   15  B  1 YY    0.001962   0.973971   0.000000  -0.000000  -0.574534
   16  B  1 ZZ   -0.001962  -0.973971   0.000000  -0.000000  -0.574534
   17  B  1 XY    0.000000   0.000000   1.073527   0.334857   0.000000
   18  B  1 XZ    0.000000   0.000000  -0.334857   1.073527   0.000000
   19  B  1 YZ    1.124644  -0.002266   0.000000  -0.000000   0.000000
   20  B  1 XX    0.000000   0.000000   0.000000  -0.000000  -0.520398
   21  B  1 YY   -0.000863  -0.428193   0.000000  -0.000000   0.212468
   22  B  1 ZZ    0.000863   0.428193   0.000000  -0.000000   0.212468
   23  B  1 XY    0.000000   0.000000  -0.467968  -0.145969   0.000000
   24  B  1 XZ    0.000000   0.000000   0.145969  -0.467968   0.000000
   25  B  1 YZ   -0.494434   0.000996   0.000000  -0.000000   0.000000
   26  B  1 XXX   0.000000   0.000000   0.000000  -0.000000   0.000000
   27  B  1 YYY   0.000000   0.000000   0.000000  -0.000000   0.000000
   28  B  1 ZZZ   0.000000   0.000000   0.000000  -0.000000   0.000000
   29  B  1 XXY   0.000000   0.000000   0.000000  -0.000000   0.000000
   30  B  1 XXZ   0.000000   0.000000   0.000000  -0.000000   0.000000
   31  B  1 YYX   0.000000   0.000000   0.000000  -0.000000   0.000000
   32  B  1 YYZ   0.000000   0.000000   0.000000  -0.000000   0.000000
   33  B  1 ZZX   0.000000   0.000000   0.000000  -0.000000   0.000000
   34  B  1 ZZY   0.000000   0.000000   0.000000  -0.000000   0.000000
   35  B  1 XYZ   0.000000   0.000000   0.000000  -0.000000   0.000000

                     31         32         33         34         35
                    5.7135     6.1251     6.1251     6.1620    20.3193
                     A          A          A          A          A   
    1  B  1  S   -0.088099   0.000000   0.000000  -0.000000   2.318567
    2  B  1  S   -1.882292   0.000000   0.000000  -0.000000  -4.093587
    3  B  1  X   -0.000000  -0.000000   0.000000  -3.865530   0.000000
    4  B  1  Y   -0.000000  -3.247277   2.101761   0.000000   0.000000
    5  B  1  Z   -0.000000  -2.101761  -3.247277   0.000000   0.000000
    6  B  1  S    7.472816   0.000000   0.000000  -0.000000   5.847487
    7  B  1  X   -0.000000   0.000000   0.000000  14.641421   0.000000
    8  B  1  Y   -0.000000  12.290039  -7.954579  -0.000000   0.000000
    9  B  1  Z   -0.000000   7.954579  12.290039  -0.000000   0.000000
   10  B  1  S    3.154116   0.000000   0.000000  -0.000000   3.577006
   11  B  1  X   -0.000000   0.000000   0.000000  -0.970113   0.000000
   12  B  1  Y   -0.000000  -0.815108   0.527568  -0.000000   0.000000
   13  B  1  Z   -0.000000  -0.527568  -0.815108  -0.000000   0.000000
   14  B  1 XX   -3.200708   0.000000   0.000000  -0.000000  -2.454002
   15  B  1 YY   -3.194585   0.000000   0.000000  -0.000000  -2.454026
   16  B  1 ZZ   -3.194585   0.000000   0.000000  -0.000000  -2.454026
   17  B  1 XY   -0.000000   0.000000   0.000000  -0.000000   0.000000
   18  B  1 XZ   -0.000000   0.000000   0.000000  -0.000000   0.000000
   19  B  1 YZ   -0.000000   0.000000   0.000000  -0.000000   0.000000
   20  B  1 XX   -1.778271   0.000000   0.000000  -0.000000  -1.879508
   21  B  1 YY   -1.781014   0.000000   0.000000  -0.000000  -1.879690
   22  B  1 ZZ   -1.781014   0.000000   0.000000  -0.000000  -1.879690
   23  B  1 XY   -0.000000   0.000000   0.000000  -0.000000   0.000000
   24  B  1 XZ   -0.000000   0.000000   0.000000  -0.000000   0.000000
   25  B  1 YZ   -0.000000   0.000000   0.000000  -0.000000   0.000000
   26  B  1 XXX  -0.000000  -0.000000   0.000000  -7.730396   0.000000
   27  B  1 YYY  -0.000000  -6.487678   4.199071   0.000000   0.000000
   28  B  1 ZZZ  -0.000000  -4.199071  -6.487678   0.000000   0.000000
   29  B  1 XXY  -0.000000  -2.901418   1.877908   0.000000   0.000000
   30  B  1 XXZ  -0.000000  -1.877908  -2.901418   0.000000   0.000000
   31  B  1 YYX  -0.000000  -0.000000   0.000000  -3.457082   0.000000
   32  B  1 YYZ  -0.000000  -1.877882  -2.901378   0.000000   0.000000
   33  B  1 ZZX  -0.000000  -0.000000   0.000000  -3.457082   0.000000
   34  B  1 ZZY  -0.000000  -2.901378   1.877882   0.000000   0.000000
   35  B  1 XYZ  -0.000000   0.000000   0.000000  -0.000000   0.000000
 ...... END OF UHF CALCULATION ......
 STEP CPU TIME =     0.01 TOTAL CPU TIME =          0.0 (      0.0 MIN)
 TOTAL WALL CLOCK TIME=          0.0 SECONDS, CPU UTILIZATION IS   100.00%

     ----------------------------------------------------------------
     PROPERTY VALUES FOR THE UHF   SELF-CONSISTENT FIELD WAVEFUNCTION
     ----------------------------------------------------------------

          -----------------
          ENERGY COMPONENTS
          -----------------

         WAVEFUNCTION NORMALIZATION =       1.0000000000

                ONE ELECTRON ENERGY =     -32.3745624278
                TWO ELECTRON ENERGY =       7.8436560407
           NUCLEAR REPULSION ENERGY =       0.0000000000
                                      ------------------
                       TOTAL ENERGY =     -24.5309063871

 ELECTRON-ELECTRON POTENTIAL ENERGY =       7.8436560407
  NUCLEUS-ELECTRON POTENTIAL ENERGY =     -56.9097114115
   NUCLEUS-NUCLEUS POTENTIAL ENERGY =       0.0000000000
                                      ------------------
             TOTAL POTENTIAL ENERGY =     -49.0660553709
               TOTAL KINETIC ENERGY =      24.5351489837
                 VIRIAL RATIO (V/T) =       1.9998270809

          ---------------------------------------
          MULLIKEN AND LOWDIN POPULATION ANALYSES
          ---------------------------------------

     ATOMIC MULLIKEN POPULATION IN EACH MOLECULAR ORBITAL
        ALPHA ORBITALS

                      1          2          3

                  1.000000   1.000000   1.000000

    1             1.000000   1.000000   1.000000

     ATOMIC MULLIKEN POPULATION IN EACH MOLECULAR ORBITAL
         BETA ORBITALS

                      1          2

                  1.000000   1.000000

    1             1.000000   1.000000

     ATOMIC SPIN POPULATION (ALPHA MINUS BETA)
       ATOM         MULL.POP.                    LOW.POP.
    1 B             1.000000                     1.000000


          ********* ALL ELECTRONS ********

               ----- POPULATIONS IN EACH AO -----
                             MULLIKEN      LOWDIN
              1  B  1  S      1.13529     1.07691
              2  B  1  S      0.85476     0.88798
              3  B  1  X      0.18328     0.17745
              4  B  1  Y     -0.00000     0.00000
              5  B  1  Z     -0.00000     0.00000
              6  B  1  S      0.99343     0.46106
              7  B  1  X      0.41015     0.23712
              8  B  1  Y      0.00000     0.00000
              9  B  1  Z      0.00000     0.00000
             10  B  1  S      0.93535     0.46329
             11  B  1  X      0.39358     0.31149
             12  B  1  Y      0.00000     0.00000
             13  B  1  Z      0.00000     0.00000
             14  B  1 XX      0.00727     0.19304
             15  B  1 YY      0.00420     0.18880
             16  B  1 ZZ      0.00420     0.18880
             17  B  1 XY      0.00000     0.00000
             18  B  1 XZ      0.00000     0.00000
             19  B  1 YZ      0.00000     0.00000
             20  B  1 XX      0.02851     0.18473
             21  B  1 YY      0.01850     0.17769
             22  B  1 ZZ      0.01850     0.17769
             23  B  1 XY      0.00000     0.00000
             24  B  1 XZ      0.00000     0.00000
             25  B  1 YZ      0.00000     0.00000
             26  B  1 XXX     0.00975     0.14516
             27  B  1 YYY    -0.00000     0.00000
             28  B  1 ZZZ    -0.00000     0.00000
             29  B  1 XXY    -0.00000     0.00000
             30  B  1 XXZ    -0.00000     0.00000
             31  B  1 YYX     0.00162     0.06439
             32  B  1 YYZ    -0.00000     0.00000
             33  B  1 ZZX     0.00162     0.06439
             34  B  1 ZZY    -0.00000     0.00000
             35  B  1 XYZ     0.00000     0.00000

          ----- MULLIKEN ATOMIC OVERLAP POPULATIONS -----
          (OFF-DIAGONAL ELEMENTS NEED TO BE MULTIPLIED BY 2)

             1

    1    5.0000000

          TOTAL MULLIKEN AND LOWDIN ATOMIC POPULATIONS
       ATOM         MULL.POP.    CHARGE          LOW.POP.     CHARGE
    1 B             5.000000   -0.000000         5.000000   -0.000000

          -------------------------------
          BOND ORDER AND VALENCE ANALYSIS     BOND ORDER THRESHOLD=0.050
          -------------------------------

                   BOND                       BOND                       BOND
  ATOM PAIR DIST  ORDER      ATOM PAIR DIST  ORDER      ATOM PAIR DIST  ORDER

                       TOTAL       BONDED        FREE
      ATOM            VALENCE     VALENCE     VALENCE
    1 B                 1.022       0.000       1.022

          -----------------------------------------
          ATOMIC SPIN DENSITY AT THE NUCLEUS (A.U.)
          -----------------------------------------
                            SPIN DENS    ALPHA DENS     BETA DENS
    1  B            5.0     0.0155094      34.06715      34.05164

          ---------------------
          ELECTROSTATIC MOMENTS
          ---------------------

 POINT   1           X           Y           Z (BOHR)    CHARGE
                 0.000000    0.000000    0.000000        0.00 (A.U.)
         DX          DY          DZ         /D/  (DEBYE)
     0.000000    0.000000    0.000000    0.000000
 ...... END OF PROPERTY EVALUATION ......
 STEP CPU TIME =     0.00 TOTAL CPU TIME =          0.0 (      0.0 MIN)
 TOTAL WALL CLOCK TIME=          0.0 SECONDS, CPU UTILIZATION IS    75.00%
               580000  WORDS OF DYNAMIC MEMORY USED
 EXECUTION OF GAMESS TERMINATED NORMALLY Thu Jun 13 18:06:14 2019
 DDI: 263640 bytes (0.3 MB / 0 MWords) used by master data server.

 ----------------------------------------
 CPU timing information for all processes
 ========================================
 0: 0.36 + 0.00 = 0.36
 ----------------------------------------
 ddikick.x: exited gracefully.
----- accounting info -----
Files used on the master node amlan-PT-3420 were:
-rw-rw-r-- 1 akroy akroy   41068 Jun 13 18:06 /tmp/b_atom_6_311g2df2pd_all.dat
-rw-rw-r-- 1 akroy akroy     242 Jun 13 18:06 /tmp/b_atom_6_311g2df2pd_all.F05
-rw-rw-r-- 1 akroy akroy  360032 Jun 13 18:06 /tmp/b_atom_6_311g2df2pd_all.F08
-rw-rw-r-- 1 akroy akroy 1930480 Jun 13 18:06 /tmp/b_atom_6_311g2df2pd_all.F10
Thu Jun 13 18:06:17 IST 2019
0.0u 0.0s 0:03.16 1.2% 0+0k 0+16io 0pf+0w
