----- GAMESS execution script 'rungms' -----
This job is running on host amlan-PT-3420
under operating system Linux at Fri Dec 13 16:09:15 IST 2019
Available scratch disk space (Kbyte units) at beginning of the job is
Filesystem      1K-blocks     Used  Available Use% Mounted on
/dev/sda3      1916812448 68415196 1751005740   4% /
GAMESS temporary binary files will be written to /tmp
GAMESS supplementary output files will be written to /tmp
Copying input file o2_b3lyp.inp to your run's scratch directory...

 Distributed Data Interface kickoff program.
 Initiating 1 compute processes on 1 nodes to run the following command:
 /home/akroy/gamess/gamess.01.x o2_b3lyp 

          ******************************************************
          *         GAMESS VERSION = 30 SEP 2018 (R3)         *
          *             FROM IOWA STATE UNIVERSITY             *
          * M.W.SCHMIDT, K.K.BALDRIDGE, J.A.BOATZ, S.T.ELBERT, *
          *   M.S.GORDON, J.H.JENSEN, S.KOSEKI, N.MATSUNAGA,   *
          *          K.A.NGUYEN, S.J.SU, T.L.WINDUS,           *
          *       TOGETHER WITH M.DUPUIS, J.A.MONTGOMERY       *
          *         J.COMPUT.CHEM.  14, 1347-1363(1993)        *
          **************** 64 BIT LINUX VERSION ****************

  SINCE 1993, STUDENTS AND POSTDOCS WORKING AT IOWA STATE UNIVERSITY
  AND ALSO IN THEIR VARIOUS JOBS AFTER LEAVING ISU HAVE MADE IMPORTANT
  CONTRIBUTIONS TO THE CODE:
     IVANA ADAMOVIC, CHRISTINE AIKENS, YURI ALEXEEV, POOJA ARORA,
     ANDREY ASADCHEV, ROB BELL, PRADIPTA BANDYOPADHYAY, JONATHAN BENTZ,
     BRETT BODE, KURT BRORSEN, CALEB CARLIN, GALINA CHABAN, WEI CHEN,
     CHEOL HO CHOI, PAUL DAY, ALBERT DEFUSCO, NUWAN DESILVA, TIM DUDLEY,
     DMITRI FEDOROV, ALEX FINDLATER, GRAHAM FLETCHER, MARK FREITAG,
     KURT GLAESEMANN, ANASTASIA GUNINA,
     DAN KEMP, GRANT MERRILL, NORIYUKI MINEZAWA, JONATHAN MULLIN,
     TAKESHI NAGATA, SEAN NEDD, HEATHER NETZLOFF, BOSILJKA NJEGIC, RYAN OLSON,
     MIKE PAK, BUU PHAM,
     SPENCER PRUITT, LUKE ROSKOP, JIM SHOEMAKER, LYUDMILA SLIPCHENKO,
     TONY SMITH, SAROM SOK LEANG, JIE SONG, TETSUYA TAKETSUGU, SIMON WEBB,
     PENG XU, SOOHAENG YOO, FEDERICO ZAHARIEV

  ADDITIONAL CODE HAS BEEN PROVIDED BY COLLABORATORS IN OTHER GROUPS:
     IOWA STATE UNIVERSITY:
          JOE IVANIC, AARON WEST, LAIMUTIS BYTAUTAS, KLAUS RUEDENBERG
     UNIVERSITY OF TOKYO: KIMIHIKO HIRAO, TAKAHITO NAKAJIMA,
          TAKAO TSUNEDA, MUNEAKI KAMIYA, SUSUMU YANAGISAWA,
          KIYOSHI YAGI, MAHITO CHIBA, SEIKEN TOKURA, NAOAKI KAWAKAMI
     UNIVERSITY OF AARHUS: FRANK JENSEN
     UNIVERSITY OF IOWA: VISVALDAS KAIRYS, HUI LI
     NATIONAL INST. OF STANDARDS AND TECHNOLOGY: WALT STEVENS, DAVID GARMER
     UNIVERSITY OF PISA: BENEDETTA MENNUCCI, JACOPO TOMASI
     UNIVERSITY OF MEMPHIS: HENRY KURTZ, PRAKASHAN KORAMBATH
     UNIVERSITY OF ALBERTA: TOBY ZENG, MARIUSZ KLOBUKOWSKI
     UNIVERSITY OF NEW ENGLAND: MARK SPACKMAN
     MIE UNIVERSITY: HIROAKI UMEDA
     NAT. INST. OF ADVANCED INDUSTRIAL SCIENCE AND TECHNOLOGY: KAZUO KITAURA
     MICHIGAN STATE UNIVERSITY:
          KAROL KOWALSKI, MARTA WLOCH, JEFFREY GOUR, JESSE LUTZ,
          WEI LI, JUN SHEN, J. EMILIANO DEUSTUA, PIOTR PIECUCH
     UNIVERSITY OF MINNESOTA:
          YINAN SHU
     UNIVERSITY OF SILESIA: MONIKA MUSIAL, STANISLAW KUCHARSKI
     FACULTES UNIVERSITAIRES NOTRE-DAME DE LA PAIX:
          OLIVIER QUINET, BENOIT CHAMPAGNE
     UNIVERSITY OF CALIFORNIA - SANTA BARBARA: BERNARD KIRTMAN
     INSTITUTE FOR MOLECULAR SCIENCE:
          KAZUYA ISHIMURA, MICHIO KATOUDA, AND SHIGERU NAGASE
     UNIVERSITY OF NOTRE DAME: ANNA POMOGAEVA, DAN CHIPMAN
     KYUSHU UNIVERSITY:
          HARUYUKI NAKANO,
          FENG LONG GU, JACEK KORCHOWIEC, MARCIN MAKOWSKI, AND YURIKO AOKI,
          HIROTOSHI MORI AND EISAKU MIYOSHI
     PENNSYLVANIA STATE UNIVERSITY:
          TZVETELIN IORDANOV, CHET SWALINA, JONATHAN SKONE,
          SHARON HAMMES-SCHIFFER
     WASEDA UNIVERSITY:
          MASATO KOBAYASHI, TOMOKO AKAMA, TSUGUKI TOUMA,
          TAKESHI YOSHIKAWA, YASUHIRO IKABATA, JUNJI SEINO,
          YUYA NAKAJIMA, HIROMI NAKAI
     NANJING UNIVERSITY: SHUHUA LI
     UNIVERSITY OF NEBRASKA:
          PEIFENG SU, DEJUN SI, NANDUN THELLAMUREGE, YALI WANG, HUI LI
     UNIVERSITY OF ZURICH: ROBERTO PEVERATI, KIM BALDRIDGE
     N. COPERNICUS UNIVERSITY AND JACKSON STATE UNIVERSITY:
          MARIA BARYSZ
     UNIVERSITY OF COPENHAGEN: Jimmy Kromann, CASPER STEINMANN
     TOKYO INSTITUTE OF TECHNOLOGY: HIROYA NAKATA
     NAGOYA UNIVERSITY: YOSHIO NISHIMOTO, STEPHAN IRLE
     MOSCOW STATE UNIVERSITY: VLADIMIR MIRONOV

 EXECUTION OF GAMESS BEGUN Fri Dec 13 16:09:16 2019

            ECHO OF THE FIRST FEW INPUT CARDS -
 INPUT CARD> $CONTRL SCFTYP=UHF RUNTYP=ENERGY COORD=CART UNITS=ANGS MULT=3 $END             
 INPUT CARD> $SYSTEM MWORDS=200 $END                                                        
 INPUT CARD> $DFT METHOD=GRID DFTTYP=B3LYP $END                                             
 INPUT CARD> $BASIS EXTFIL=.TRUE. GBASIS=6311GDS $END                                       
 INPUT CARD> $GUESS GUESS=HUCKEL $END                                                       
 INPUT CARD> $DATA                                                                          
 INPUT CARD>OXYGEN                                                                          
 INPUT CARD>C1                                                                              
 INPUT CARD>O   8.0   0.0000   0.0000   0.0000                                              
 INPUT CARD>O   8.0   0.0000   0.0000   1.2075                                              
 INPUT CARD> $END                                                                           
 INPUT CARD>~                                                                               
  200000000 WORDS OF MEMORY AVAILABLE


                    * * * WARNING * * *
 OLD KEYWORD COORD=CART SELECTED, AUTOMATICALLY CHANGED TO COORD=PRINAXIS.
 YOUR MOLECULE'S COORDINATES WILL BE CHANGED TO PRINCIPAL AXES BY
   A) TRANSLATION TO THE CENTER OF MASS, THEN
   B) ROTATION TO HAVE A DIAGONAL MOMENT OF INERTIA TENSOR.

 HOWEVER, NOTHING ELSE IN YOUR INPUT WILL BE ROTATED IN THE SAME WAY,
 SO IF YOU HAVE A $VEC, $VIB, $GRAD, $HESS, EFP PARTICLE COORDINATES,
 OR ANYTHING ELSE THAT DEPENDS ON THE INITIAL ORIENTATION, THAT DATA
 WILL NOT BE USED CORRECTLY IN THIS RUN.

 THE PURPOSE OF COORD=PRINAXIS IS TO BE USED ONCE, ONLY AT THE VERY
 BEGINNING OF A SERIES OF COMPUTATIONS, PERHAPS TO FIND THE SYMMETRY
 UNIQUE ATOMS FROM AN ARBITRARY INITIAL ORIENTATION.

 AFTER THE FIRST RUN, YOU SHOULD USE ONLY COORD=UNIQUE, TO ENSURE THAT
 THE COORDINATES WHICH YOU READ IN ARE THE COORDINATES THAT ARE USED.


     $BASIS REQUESTS READING THE "6311GDS " BASIS SET FROM AN EXTERNAL FILE


     RUN TITLE
     ---------
 OXYGEN                                                                          

 THE POINT GROUP OF THE MOLECULE IS C1      
 THE ORDER OF THE PRINCIPAL AXIS IS     0

 THE MOMENTS OF INERTIA ARE (AMU-ANGSTROM**2)
 IXX=    11.661   IYY=    11.661   IZZ=     0.000

 THE EXTERNAL BASIS SET FILE BEING READ IS
     "/home/akroy/gamess/EXTFILE.txt"

 ATOM      ATOMIC                      COORDINATES (BOHR)
           CHARGE         X                   Y                   Z
 O           8.0     0.0000000000        0.0000000000       -1.1409220651
 O           8.0     0.0000000000        0.0000000000        1.1409220651

          INTERNUCLEAR DISTANCES (ANGS.)
          ------------------------------

                1 O          2 O     

   1 O       0.0000000    1.2075000 *
   2 O       1.2075000 *  0.0000000  

  * ... LESS THAN  3.000


     ATOMIC BASIS SET
     ----------------
 THE CONTRACTED PRIMITIVE FUNCTIONS HAVE BEEN UNNORMALIZED
 THE CONTRACTED BASIS FUNCTIONS ARE NOW NORMALIZED TO UNITY

  SHELL TYPE  PRIMITIVE        EXPONENT          CONTRACTION COEFFICIENT(S)

 O         

      1   S       1          8588.5000000    0.001895150083
      1   S       2          1297.2300000    0.014385900631
      1   S       3           299.2960000    0.070732003103
      1   S       4            87.3771000    0.240001010530
      1   S       5            25.6789000    0.594797026097
      1   S       6             3.7400400    0.280802012320

      2   L       7            42.1175000    0.113889012440    0.036511397380
      2   L       8             9.6283700    0.920811100576    0.237152982984
      2   L       9             2.8533200   -0.003274470358    0.819701941186

      3   L      10             0.9056610    1.000000000000    1.000000000000

      4   L      11             0.2556110    1.000000000000    1.000000000000

      5   L      12             0.0845000    1.000000000000    1.000000000000

      6   D      13             1.2920000    1.000000000000                         

 O         

      7   S      14          8588.5000000    0.001895150083
      7   S      15          1297.2300000    0.014385900631
      7   S      16           299.2960000    0.070732003103
      7   S      17            87.3771000    0.240001010530
      7   S      18            25.6789000    0.594797026097
      7   S      19             3.7400400    0.280802012320

      8   L      20            42.1175000    0.113889012440    0.036511397380
      8   L      21             9.6283700    0.920811100576    0.237152982984
      8   L      22             2.8533200   -0.003274470358    0.819701941186

      9   L      23             0.9056610    1.000000000000    1.000000000000

     10   L      24             0.2556110    1.000000000000    1.000000000000

     11   L      25             0.0845000    1.000000000000    1.000000000000

     12   D      26             1.2920000    1.000000000000

 TOTAL NUMBER OF BASIS SET SHELLS             =   12
 NUMBER OF CARTESIAN GAUSSIAN BASIS FUNCTIONS =   46
 NUMBER OF ELECTRONS                          =   16
 CHARGE OF MOLECULE                           =    0
 SPIN MULTIPLICITY                            =    3
 NUMBER OF OCCUPIED ORBITALS (ALPHA)          =    9
 NUMBER OF OCCUPIED ORBITALS (BETA )          =    7
 TOTAL NUMBER OF ATOMS                        =    2
 THE NUCLEAR REPULSION ENERGY IS       28.0474898148

 THIS MOLECULE IS RECOGNIZED AS BEING LINEAR,
 ORBITAL LZ DEGENERACY TOLERANCE ETOLLZ= 1.00E-06

 *** WARNING ***
 KEYWORD DFTTYP IN $DFT IS NOW OBSOLETE.
 PLEASE ENTER DFTTYP IN THE $CONTRL GROUP IN FUTURE INPUT FILES.


     LEBEDEV GRID-BASED DFT OPTIONS
     ------------------------------
     DFTTYP=B3LYP   
     NRAD  =      96     NLEB  =     302
     NRAD0 =      24     NLEB0 =     110
     SWOFF =    5.00E-03 (PURE SCF -> DFT)
     SWITCH=    3.00E-04 (COARSE -> TIGHT GRID)
     THRESH=    0.00E+00 GTHRE=    1.00E+00

 GRIMME'S EMPIRICAL DISPERSION CORRECTION= F

     $CONTRL OPTIONS
     ---------------
 SCFTYP=UHF          RUNTYP=ENERGY       EXETYP=RUN     
 MPLEVL=       0     CITYP =NONE         CCTYP =NONE         VBTYP =NONE    
 DFTTYP=B3LYP        TDDFT =NONE    
 MULT  =       3     ICHARG=       0     NZVAR =       0     COORD =PRINAXIS
 PP    =NONE         RELWFN=NONE         LOCAL =NONE         NUMGRD=       F
 ISPHER=      -1     NOSYM =       0     MAXIT =      30     UNITS =ANGS    
 PLTORB=       F     MOLPLT=       F     AIMPAC=       F     FRIEND=        
 NPRINT=       7     IREST =       0     GEOM  =INPUT   
 NORMF =       0     NORMP =       0     ITOL  =      20     ICUT  =       9
 INTTYP=BEST         GRDTYP=BEST         QMTTOL= 1.0E-06

     $SYSTEM OPTIONS
     ---------------
  REPLICATED MEMORY=   200000000 WORDS (ON EVERY NODE).
 DISTRIBUTED MEMDDI=           0 MILLION WORDS IN AGGREGATE,
 MEMDDI DISTRIBUTED OVER   1 PROCESSORS IS           0 WORDS/PROCESSOR.
 TOTAL MEMORY REQUESTED ON EACH PROCESSOR=   200000000 WORDS.
 TIMLIM=      525600.00 MINUTES, OR     365.0 DAYS.
 PARALL= F  BALTYP=  DLB     KDIAG=    0  COREFL= F
 MXSEQ2=     300 MXSEQ3=     150  mem10=         0

          ----------------
          PROPERTIES INPUT
          ----------------

     MOMENTS            FIELD           POTENTIAL          DENSITY
 IEMOM =       1   IEFLD =       0   IEPOT =       0   IEDEN =       0
 WHERE =COMASS     WHERE =NUCLEI     WHERE =NUCLEI     WHERE =NUCLEI  
 OUTPUT=BOTH       OUTPUT=BOTH       OUTPUT=BOTH       OUTPUT=BOTH    
 IEMINT=       0   IEFINT=       0                     IEDINT=       0
                                                       MORB  =       0
          EXTRAPOLATION IN EFFECT
          DIIS IN EFFECT
          DIIS or SOSCF will be reset if energy rises
 ORBITAL PRINTING OPTION: NPREO=     1    46     2     1

     -------------------------------
     INTEGRAL TRANSFORMATION OPTIONS
     -------------------------------
     NWORD  =            0
     CUTOFF = 1.0E-09     MPTRAN =       0
     DIRTRF =       F     AOINTS =DUP     

          ----------------------
          INTEGRAL INPUT OPTIONS
          ----------------------
 NOPK  =       1 NORDER=       0 SCHWRZ=       F

     ------------------------------------------
     THE POINT GROUP IS C1 , NAXIS= 0, ORDER= 1
     ------------------------------------------

     DIMENSIONS OF THE SYMMETRY SUBSPACES ARE
 A   =   46

 ..... DONE SETTING UP THE RUN .....
 STEP CPU TIME =     0.02 TOTAL CPU TIME =          0.0 (      0.0 MIN)
 TOTAL WALL CLOCK TIME=          0.0 SECONDS, CPU UTILIZATION IS   100.00%

          ********************
          1 ELECTRON INTEGRALS
          ********************
 ...... END OF ONE-ELECTRON INTEGRALS ......
 STEP CPU TIME =     0.00 TOTAL CPU TIME =          0.0 (      0.0 MIN)
 TOTAL WALL CLOCK TIME=          0.0 SECONDS, CPU UTILIZATION IS   100.00%

          -------------
          GUESS OPTIONS
          -------------
          GUESS =HUCKEL            NORB  =       0          NORDER=       0
          MIX   =       F          PRTMO =       F          PUNMO =       F
          TOLZ  = 1.0E-08          TOLE  = 1.0E-05
          SYMDEN=       F          PURIFY=       F

 INITIAL GUESS ORBITALS GENERATED BY HUCKEL   ROUTINE.
 HUCKEL GUESS REQUIRES     17602 WORDS.

 SYMMETRIES FOR INITIAL GUESS ORBITALS FOLLOW.  ALPHA SET(S).
     9 ORBITALS ARE OCCUPIED (    2 CORE ORBITALS).
     3=A        4=A        5=A        6=A        7=A        8=A        9=A   
    10=A       11=A       12=A       13=A       14=A       15=A       16=A   
    17=A       18=A       19=A   

 SYMMETRIES FOR INITIAL GUESS ORBITALS FOLLOW.   BETA SET(S).
     7 ORBITALS ARE OCCUPIED (    2 CORE ORBITALS).
     3=A        4=A        5=A        6=A        7=A        8=A        9=A   
    10=A       11=A       12=A       13=A       14=A       15=A       16=A   
    17=A   
 ...... END OF INITIAL ORBITAL SELECTION ......
 STEP CPU TIME =     0.00 TOTAL CPU TIME =          0.0 (      0.0 MIN)
 TOTAL WALL CLOCK TIME=          0.0 SECONDS, CPU UTILIZATION IS   100.00%

                    ----------------------
                    AO INTEGRAL TECHNOLOGY
                    ----------------------
     S,P,L SHELL ROTATED AXIS INTEGRALS, REPROGRAMMED BY
        KAZUYA ISHIMURA (IMS) AND JOSE SIERRA (SYNSTAR).
     S,P,D,L SHELL ROTATED AXIS INTEGRALS PROGRAMMED BY
        KAZUYA ISHIMURA (INSTITUTE FOR MOLECULAR SCIENCE).
     S,P,D,F,G SHELL TO TOTAL QUARTET ANGULAR MOMENTUM SUM 5,
        ERIC PROGRAM BY GRAHAM FLETCHER (ELORET AND NASA ADVANCED
        SUPERCOMPUTING DIVISION, AMES RESEARCH CENTER).
     S,P,D,F,G,L SHELL GENERAL RYS QUADRATURE PROGRAMMED BY
        MICHEL DUPUIS (PACIFIC NORTHWEST NATIONAL LABORATORY).

          --------------------
          2 ELECTRON INTEGRALS
          --------------------

 THE -PK- OPTION IS OFF, THE INTEGRALS ARE NOT IN SUPERMATRIX FORM.
 STORING   15000 INTEGRALS/RECORD ON DISK, USING 12 BYTES/INTEGRAL.
 TWO ELECTRON INTEGRAL EVALUATION REQUIRES   90474 WORDS OF MEMORY.
 II,JST,KST,LST =  1  1  1  1 NREC =         1 INTLOC =    1
 II,JST,KST,LST =  2  1  1  1 NREC =         1 INTLOC =    2
 II,JST,KST,LST =  3  1  1  1 NREC =         1 INTLOC =   34
 II,JST,KST,LST =  4  1  1  1 NREC =         1 INTLOC =  214
 II,JST,KST,LST =  5  1  1  1 NREC =         1 INTLOC =  776
 II,JST,KST,LST =  6  1  1  1 NREC =         1 INTLOC = 2074
 II,JST,KST,LST =  7  1  1  1 NREC =         1 INTLOC = 5929
 II,JST,KST,LST =  8  1  1  1 NREC =         1 INTLOC = 8140
 II,JST,KST,LST =  9  1  1  1 NREC =         2 INTLOC = 3794
 II,JST,KST,LST = 10  1  1  1 NREC =         3 INTLOC = 5012
 II,JST,KST,LST = 11  1  1  1 NREC =         4 INTLOC =13174
 II,JST,KST,LST = 12  1  1  1 NREC =         6 INTLOC =14858
 TOTAL NUMBER OF NONZERO TWO-ELECTRON INTEGRALS =              153998
         11 INTEGRAL RECORDS WERE STORED ON DISK FILE  8.
  ...... END OF TWO-ELECTRON INTEGRALS .....
 STEP CPU TIME =     0.02 TOTAL CPU TIME =          0.0 (      0.0 MIN)
 TOTAL WALL CLOCK TIME=          0.1 SECONDS, CPU UTILIZATION IS    80.00%

          ---------------------------
              U-B3LYP SCF CALCULATION
          ---------------------------

     NUCLEAR ENERGY =        28.0474898148
     MAXIT = 30     NPUNCH=  2     MULT=  3
     EXTRAP=T  DAMP=F  SHIFT=F  RSTRCT=F  DIIS=T  SOSCF=F
         DENSITY MATRIX CONVERGENCE THRESHOLD=  1.00E-05
     COARSE -> FINE DFT GRID SWITCH THRESHOLD=  3.00E-04 (SWITCH IN $DFT)
                   HF -> DFT SWITCH THRESHOLD=  5.00E-03 (SWOFF IN $DFT)
     MEMORY REQUIRED FOR UHF/ROHF ITERS=    158150 WORDS.

 DFT CODE IS SWITCHING FROM THE FINE GRID NRAD= 96,  NLEB=  302
                      TO THE COARSE GRID NRAD0= 24, NLEB0=  110

     EXCHANGE FUNCTIONAL   =B88&HFX   
     CORRELATION FUNCTIONAL=LYP88&VWN5
     DFT THRESHOLD         =.690E-07
     GRID CHANGE THRESHOLD =.300E-03
 FOR AN EULER-MACLAURIN QUADRATURE USING  96 RADIAL POINTS:
 SMALLEST GAUSSIAN PRIMITIVE EXPONENT=        0.0845000000 OF TYPE -P-
 ON ATOM NUMBER   1 HAS RADIAL NORMALIZATION=  1.000000
  LARGEST GAUSSIAN PRIMITIVE EXPONENT=     8588.5000000000 OF TYPE -S-
 ON ATOM NUMBER   1 HAS RADIAL NORMALIZATION=  1.000000
 DFT IS SWITCHED OFF, PERFORMING PURE SCF UNTIL SWOFF THRESHOLD IS REACHED.

 ITER EX      TOTAL ENERGY        E CHANGE  DENSITY CHANGE    DIIS ERROR
   1  0     -149.1874278361  -149.1874278361   0.225456011   1.951915333
          * * *   INITIATING DIIS PROCEDURE   * * *
   2  1     -149.6413869742    -0.4539591380   0.046148615   0.083940657
   3  2     -149.6580350105    -0.0166480364   0.023306327   0.035790676
   4  3     -149.6597797085    -0.0017446980   0.006138569   0.010977233
   5  4     -149.6600260090    -0.0002463005   0.002679488   0.001978633
 CONVERGED TO SWOFF, SO DFT CALCULATION IS NOW SWITCHED ON.
          * * *   INITIATING DIIS PROCEDURE   * * *
   6  5     -150.2932604749    -0.6332344659   0.043978586   0.192420903
   7  6     -150.3110771361    -0.0178166612   0.027654986   0.023608698
   8  7     -150.3117674415    -0.0006903055   0.012765949   0.019948558
   9  8     -150.3123489309    -0.0005814894   0.001532715   0.001853424
  10  9     -150.3123582874    -0.0000093565   0.000281221   0.000482145
 DFT CODE IS SWITCHING BACK TO THE FINE GRID
          * * *   INITIATING DIIS PROCEDURE   * * *
  11 10     -150.3121955354     0.0001627519   0.001966238   0.001631040
  12 11     -150.3121974252    -0.0000018898   0.000237410   0.000147832
  13 12     -150.3121974299    -0.0000000046   0.000111511   0.000162909
  14 13     -150.3121974667    -0.0000000369   0.000022371   0.000107753
  15 14     -150.3121974733    -0.0000000066   0.000003656   0.000020546
  16 15     -150.3121974736    -0.0000000003   0.000000316   0.000000518

          -----------------
          DENSITY CONVERGED
          -----------------
     TIME TO FORM FOCK OPERATORS=       1.5 SECONDS (       0.1 SEC/ITER)
     TIME TO SOLVE SCF EQUATIONS=       0.0 SECONDS (       0.0 SEC/ITER)

 FINAL U-B3LYP ENERGY IS     -150.3121974736 AFTER  16 ITERATIONS
 DFT EXCHANGE + CORRELATION ENERGY =       -13.7108106044
 TOTAL ELECTRON NUMBER             =        15.9999998597

          --------------------
          SPIN SZ   =    1.000
          S-SQUARED =    2.009
          --------------------

 LZ VALUE ANALYSIS FOR THE MOS
 ----------------------------------------
 MO     1 (    1) HAS LZ(WEIGHT)= 0.00(100.0%) 
 MO     2 (    2) HAS LZ(WEIGHT)= 0.00(100.0%) 
 MO     3 (    3) HAS LZ(WEIGHT)= 0.00(100.0%) 
 MO     4 (    4) HAS LZ(WEIGHT)= 0.00(100.0%) 
 MO     5 (    5) HAS LZ(WEIGHT)=-1.00( 50.0%)  1.00( 50.0%) 
 MO     6 (    5) HAS LZ(WEIGHT)=-1.00( 50.0%)  1.00( 50.0%) 
 MO     7 (    6) HAS LZ(WEIGHT)= 0.00(100.0%) 
 MO     8 (    7) HAS LZ(WEIGHT)=-1.00( 50.0%)  1.00( 50.0%) 
 MO     9 (    7) HAS LZ(WEIGHT)=-1.00( 50.0%)  1.00( 50.0%) 
 MO    10 (    8) HAS LZ(WEIGHT)= 0.00(100.0%) 
 MO    11 (    9) HAS LZ(WEIGHT)= 0.00(100.0%) 
 MO    12 (   10) HAS LZ(WEIGHT)=-1.00( 50.0%)  1.00( 50.0%) 
 MO    13 (   10) HAS LZ(WEIGHT)=-1.00( 50.0%)  1.00( 50.0%) 
 MO    14 (   11) HAS LZ(WEIGHT)= 0.00(100.0%) 
 MO    15 (   12) HAS LZ(WEIGHT)=-1.00( 50.0%)  1.00( 50.0%) 
 MO    16 (   12) HAS LZ(WEIGHT)=-1.00( 50.0%)  1.00( 50.0%) 
 MO    17 (   13) HAS LZ(WEIGHT)= 0.00(100.0%) 
 MO    18 (   14) HAS LZ(WEIGHT)= 0.00(100.0%) 
 MO    19 (   15) HAS LZ(WEIGHT)=-1.00( 50.0%)  1.00( 50.0%) 
 MO    20 (   15) HAS LZ(WEIGHT)=-1.00( 50.0%)  1.00( 50.0%) 
 MO    21 (   16) HAS LZ(WEIGHT)= 0.00(100.0%) 
 MO    22 (   17) HAS LZ(WEIGHT)= 0.00(100.0%) 
 MO    23 (   18) HAS LZ(WEIGHT)=-1.00( 50.0%)  1.00( 50.0%) 
 MO    24 (   18) HAS LZ(WEIGHT)=-1.00( 50.0%)  1.00( 50.0%) 
 MO    25 (   19) HAS LZ(WEIGHT)= 0.00(100.0%) 
 MO    26 (   20) HAS LZ(WEIGHT)= 0.00(100.0%) 
 MO    27 (   21) HAS LZ(WEIGHT)=-1.00( 50.0%)  1.00( 50.0%) 
 MO    28 (   21) HAS LZ(WEIGHT)=-1.00( 50.0%)  1.00( 50.0%) 
 MO    29 (   22) HAS LZ(WEIGHT)=-2.00( 50.0%)  2.00( 50.0%) 
 MO    30 (   22) HAS LZ(WEIGHT)=-2.00( 50.0%)  2.00( 50.0%) 
 MO    31 (   23) HAS LZ(WEIGHT)=-2.00( 50.0%)  2.00( 50.0%) 
 MO    32 (   23) HAS LZ(WEIGHT)=-2.00( 50.0%)  2.00( 50.0%) 
 MO    33 (   24) HAS LZ(WEIGHT)= 0.00(100.0%) 
 MO    34 (   25) HAS LZ(WEIGHT)=-1.00( 50.0%)  1.00( 50.0%) 
 MO    35 (   25) HAS LZ(WEIGHT)=-1.00( 50.0%)  1.00( 50.0%) 
 MO    36 (   26) HAS LZ(WEIGHT)= 0.00(100.0%) 
 MO    37 (   27) HAS LZ(WEIGHT)=-1.00( 50.0%)  1.00( 50.0%) 
 MO    38 (   27) HAS LZ(WEIGHT)=-1.00( 50.0%)  1.00( 50.0%) 
 MO    39 (   28) HAS LZ(WEIGHT)= 0.00(100.0%) 
 MO    40 (   29) HAS LZ(WEIGHT)=-1.00( 50.0%)  1.00( 50.0%) 
 MO    41 (   29) HAS LZ(WEIGHT)=-1.00( 50.0%)  1.00( 50.0%) 
 MO    42 (   30) HAS LZ(WEIGHT)= 0.00(100.0%) 
 MO    43 (   31) HAS LZ(WEIGHT)= 0.00(100.0%) 
 MO    44 (   32) HAS LZ(WEIGHT)= 0.00(100.0%) 
 MO    45 (   33) HAS LZ(WEIGHT)= 0.00(100.0%) 
 MO    46 (   34) HAS LZ(WEIGHT)= 0.00(100.0%) 

  ----- ALPHA SET ----- 

          ------------
          EIGENVECTORS
          ------------

                      1          2          3          4          5
                  -19.2959   -19.2957    -1.3214    -0.8479    -0.5753
                     A          A          A          A          A   
    1  O  1  S    0.391721  -0.388032  -0.086081   0.092967  -0.000000
    2  O  1  S    0.331319  -0.328070  -0.138024   0.152681  -0.000000
    3  O  1  X    0.000000  -0.000000   0.000000   0.000000   0.000000
    4  O  1  Y    0.000000  -0.000000   0.000000   0.000000   0.219706
    5  O  1  Z    0.001175  -0.001373   0.080099   0.060892  -0.000000
    6  O  1  S    0.015716  -0.015849   0.414251  -0.467818  -0.000000
    7  O  1  X    0.000000  -0.000000   0.000000   0.000000   0.000000
    8  O  1  Y    0.000000  -0.000000   0.000000   0.000000   0.326795
    9  O  1  Z   -0.000309   0.001121   0.127649   0.082427  -0.000000
   10  O  1  S    0.000753  -0.002125   0.219611  -0.467240  -0.000000
   11  O  1  X    0.000000  -0.000000   0.000000   0.000000   0.000000
   12  O  1  Y    0.000000  -0.000000   0.000000   0.000000   0.229267
   13  O  1  Z    0.000215  -0.000914   0.031493   0.001191  -0.000000
   14  O  1  S   -0.000257   0.004276  -0.012535   0.163268  -0.000000
   15  O  1  X    0.000000  -0.000000   0.000000   0.000000   0.000000
   16  O  1  Y    0.000000  -0.000000   0.000000   0.000000   0.008543
   17  O  1  Z   -0.000201   0.001422  -0.009367   0.060135  -0.000000
   18  O  1 XX   -0.004402   0.004418  -0.008777  -0.001115  -0.000000
   19  O  1 YY   -0.004402   0.004418  -0.008777  -0.001115  -0.000000
   20  O  1 ZZ   -0.004309   0.005214   0.019079   0.017301  -0.000000
   21  O  1 XY    0.000000  -0.000000   0.000000   0.000000  -0.000000
   22  O  1 XZ    0.000000  -0.000000   0.000000   0.000000   0.000000
   23  O  1 YZ    0.000000  -0.000000   0.000000   0.000000   0.027210
   24  O  2  S    0.387991   0.391761  -0.086082  -0.092967  -0.000000
   25  O  2  S    0.328165   0.331225  -0.138024  -0.152682  -0.000000
   26  O  2  X    0.000000  -0.000000   0.000000   0.000000   0.000000
   27  O  2  Y    0.000000  -0.000000   0.000000   0.000000   0.219706
   28  O  2  Z   -0.001161  -0.001384  -0.080099   0.060893  -0.000000
   29  O  2  S    0.015564   0.015999   0.414256   0.467819  -0.000000
   30  O  2  X    0.000000  -0.000000   0.000000   0.000000   0.000000
   31  O  2  Y    0.000000  -0.000000   0.000000   0.000000   0.326795
   32  O  2  Z    0.000298   0.001124  -0.127648   0.082427  -0.000000
   33  O  2  S    0.000734   0.002132   0.219594   0.467240  -0.000000
   34  O  2  X    0.000000  -0.000000   0.000000   0.000000   0.000000
   35  O  2  Y    0.000000  -0.000000   0.000000   0.000000   0.229267
   36  O  2  Z   -0.000206  -0.000916  -0.031493   0.001192  -0.000000
   37  O  2  S   -0.000232  -0.004278  -0.012285  -0.163270  -0.000000
   38  O  2  X    0.000000  -0.000000   0.000000   0.000000   0.000000
   39  O  2  Y    0.000000  -0.000000   0.000000   0.000000   0.008544
   40  O  2  Z    0.000193   0.001424   0.009281   0.060135  -0.000000
   41  O  2 XX   -0.004360  -0.004460  -0.008777   0.001114  -0.000000
   42  O  2 YY   -0.004360  -0.004460  -0.008777   0.001114  -0.000000
   43  O  2 ZZ   -0.004259  -0.005255   0.019079  -0.017302  -0.000000
   44  O  2 XY    0.000000  -0.000000   0.000000   0.000000  -0.000000
   45  O  2 XZ    0.000000  -0.000000   0.000000   0.000000  -0.000000
   46  O  2 YZ    0.000000  -0.000000   0.000000   0.000000  -0.027210

                      6          7          8          9         10
                   -0.5753    -0.5618    -0.3205    -0.3205     0.0804
                     A          A          A          A          A   
    1  O  1  S    0.000000  -0.031254  -0.000000  -0.000000   0.027530
    2  O  1  S    0.000000  -0.052270  -0.000000  -0.000000   0.050179
    3  O  1  X    0.219706  -0.000000   0.000000  -0.253261   0.000000
    4  O  1  Y   -0.000000  -0.000000  -0.253261  -0.000000   0.000000
    5  O  1  Z    0.000000  -0.217546  -0.000000  -0.000000   0.048515
    6  O  1  S    0.000000   0.150571  -0.000000  -0.000000  -0.138879
    7  O  1  X    0.326795  -0.000000   0.000000  -0.368936   0.000000
    8  O  1  Y   -0.000000  -0.000000  -0.368936  -0.000000   0.000000
    9  O  1  Z    0.000000  -0.324052  -0.000000  -0.000000   0.046897
   10  O  1  S    0.000000   0.210576  -0.000000  -0.000000  -0.662026
   11  O  1  X    0.229267  -0.000000   0.000000  -0.346214   0.000000
   12  O  1  Y   -0.000000  -0.000000  -0.346214  -0.000000   0.000000
   13  O  1  Z    0.000000  -0.191254  -0.000000  -0.000000   0.161078
   14  O  1  S    0.000000   0.038594  -0.000000  -0.000000   0.940529
   15  O  1  X    0.008543  -0.000000   0.000000  -0.067063   0.000000
   16  O  1  Y   -0.000000  -0.000000  -0.067063  -0.000000   0.000000
   17  O  1  Z    0.000000   0.000058  -0.000000  -0.000000  -0.270928
   18  O  1 XX    0.000000   0.008242  -0.000000  -0.000000   0.017185
   19  O  1 YY    0.000000   0.008242  -0.000000  -0.000000   0.017185
   20  O  1 ZZ    0.000000  -0.028521  -0.000000  -0.000000   0.010734
   21  O  1 XY    0.000000  -0.000000  -0.000000  -0.000000   0.000000
   22  O  1 XZ    0.027210  -0.000000  -0.000000   0.005008   0.000000
   23  O  1 YZ   -0.000000  -0.000000   0.005008   0.000000   0.000000
   24  O  2  S    0.000000  -0.031253  -0.000000  -0.000000   0.027513
   25  O  2  S    0.000000  -0.052271  -0.000000  -0.000000   0.050150
   26  O  2  X    0.219706  -0.000000  -0.000000   0.253261   0.000000
   27  O  2  Y   -0.000000  -0.000000   0.253261   0.000000   0.000000
   28  O  2  Z    0.000000   0.217545  -0.000000  -0.000000  -0.048553
   29  O  2  S    0.000000   0.150570  -0.000000  -0.000000  -0.138762
   30  O  2  X    0.326795  -0.000000  -0.000000   0.368936   0.000000
   31  O  2  Y   -0.000000  -0.000000   0.368936   0.000000   0.000000
   32  O  2  Z    0.000000   0.324052  -0.000000  -0.000000  -0.046962
   33  O  2  S    0.000000   0.210587  -0.000000  -0.000000  -0.661965
   34  O  2  X    0.229267  -0.000000  -0.000000   0.346214   0.000000
   35  O  2  Y   -0.000000  -0.000000   0.346214   0.000000   0.000000
   36  O  2  Z    0.000000   0.191251  -0.000000  -0.000000  -0.161095
   37  O  2  S    0.000000   0.038490  -0.000000  -0.000000   0.944387
   38  O  2  X    0.008544  -0.000000  -0.000000   0.067063   0.000000
   39  O  2  Y   -0.000000  -0.000000   0.067063   0.000000   0.000000
   40  O  2  Z    0.000000  -0.000022  -0.000000  -0.000000   0.269245
   41  O  2 XX    0.000000   0.008241  -0.000000  -0.000000   0.017194
   42  O  2 YY    0.000000   0.008241  -0.000000  -0.000000   0.017194
   43  O  2 ZZ    0.000000  -0.028522  -0.000000  -0.000000   0.010727
   44  O  2 XY    0.000000  -0.000000  -0.000000  -0.000000   0.000000
   45  O  2 XZ   -0.027210  -0.000000  -0.000000   0.005008   0.000000
   46  O  2 YZ    0.000000  -0.000000   0.005008   0.000000   0.000000

                     11         12         13         14         15
                    0.0851     0.1284     0.1284     0.1928     0.2053
                     A          A          A          A          A   
    1  O  1  S   -0.035237   0.000000  -0.000000  -0.008344   0.000000
    2  O  1  S   -0.059981   0.000000  -0.000000  -0.016210   0.000000
    3  O  1  X    0.000000  -0.000000  -0.081816   0.000000   0.000000
    4  O  1  Y    0.000000  -0.081816   0.000000   0.000000  -0.078627
    5  O  1  Z    0.075448   0.000000  -0.000000   0.037639   0.000000
    6  O  1  S    0.213995   0.000000  -0.000000   0.034797   0.000000
    7  O  1  X    0.000000  -0.000000  -0.086968   0.000000   0.000000
    8  O  1  Y    0.000000  -0.086968   0.000000   0.000000  -0.080226
    9  O  1  Z    0.135048   0.000000  -0.000000   0.033640   0.000000
   10  O  1  S    0.371107   0.000000  -0.000000   0.387541   0.000000
   11  O  1  X    0.000000  -0.000000  -0.274437   0.000000   0.000000
   12  O  1  Y    0.000000  -0.274437   0.000000   0.000000  -0.324639
   13  O  1  Z    0.074017   0.000000  -0.000000   0.145812   0.000000
   14  O  1  S    4.224679   0.000000  -0.000000  -0.018439   0.000000
   15  O  1  X    0.000000   0.000000   0.666826   0.000000  -0.000000
   16  O  1  Y    0.000000   0.666827  -0.000000   0.000000   1.830570
   17  O  1  Z    2.132937   0.000000  -0.000000  -1.320002   0.000000
   18  O  1 XX    0.007010   0.000000  -0.000000  -0.019974   0.000000
   19  O  1 YY    0.007010   0.000000  -0.000000  -0.019974   0.000000
   20  O  1 ZZ   -0.020169   0.000000  -0.000000   0.014638   0.000000
   21  O  1 XY    0.000000   0.000000  -0.000000   0.000000   0.000000
   22  O  1 XZ    0.000000  -0.000000  -0.011137   0.000000   0.000000
   23  O  1 YZ    0.000000  -0.011137   0.000000   0.000000  -0.007315
   24  O  2  S    0.035251   0.000000  -0.000000  -0.008347   0.000000
   25  O  2  S    0.060004   0.000000  -0.000000  -0.016218   0.000000
   26  O  2  X    0.000000  -0.000000  -0.081816   0.000000  -0.000000
   27  O  2  Y    0.000000  -0.081816   0.000000   0.000000   0.078627
   28  O  2  Z    0.075419   0.000000  -0.000000  -0.037643   0.000000
   29  O  2  S   -0.214063   0.000000  -0.000000   0.034810   0.000000
   30  O  2  X    0.000000  -0.000000  -0.086968   0.000000  -0.000000
   31  O  2  Y    0.000000  -0.086968   0.000000   0.000000   0.080226
   32  O  2  Z    0.135015   0.000000  -0.000000  -0.033652   0.000000
   33  O  2  S   -0.371429   0.000000  -0.000000   0.387719   0.000000
   34  O  2  X    0.000000  -0.000000  -0.274438   0.000000  -0.000000
   35  O  2  Y    0.000000  -0.274438   0.000000   0.000000   0.324639
   36  O  2  Z    0.073936   0.000000  -0.000000  -0.145812   0.000000
   37  O  2  S   -4.224185   0.000000  -0.000000  -0.020871   0.000000
   38  O  2  X    0.000000   0.000000   0.666830   0.000000   0.000000
   39  O  2  Y    0.000000   0.666828  -0.000000   0.000000  -1.830570
   40  O  2  Z    2.133127   0.000000  -0.000000   1.320794   0.000000
   41  O  2 XX   -0.007008   0.000000  -0.000000  -0.019980   0.000000
   42  O  2 YY   -0.007008   0.000000  -0.000000  -0.019980   0.000000
   43  O  2 ZZ    0.020170   0.000000  -0.000000   0.014633   0.000000
   44  O  2 XY    0.000000   0.000000  -0.000000   0.000000   0.000000
   45  O  2 XZ    0.000000   0.000000   0.011137   0.000000   0.000000
   46  O  2 YZ    0.000000   0.011137  -0.000000   0.000000  -0.007315

                     16         17         18         19         20
                    0.2053     0.2422     0.3351     0.9207     0.9207
                     A          A          A          A          A   
    1  O  1  S    0.000000   0.034564   0.021170  -0.000000   0.000000
    2  O  1  S    0.000000   0.059421   0.041072  -0.000000   0.000000
    3  O  1  X   -0.078627   0.000000  -0.000000  -0.000000  -0.189216
    4  O  1  Y   -0.000000   0.000000  -0.000000  -0.189216   0.000000
    5  O  1  Z    0.000000  -0.262607   0.005975  -0.000000   0.000000
    6  O  1  S    0.000000  -0.190592  -0.075873  -0.000000   0.000000
    7  O  1  X   -0.080226   0.000000  -0.000000  -0.000000  -0.586699
    8  O  1  Y   -0.000000   0.000000  -0.000000  -0.586701   0.000000
    9  O  1  Z    0.000000  -0.376498  -0.019193  -0.000000   0.000000
   10  O  1  S    0.000000  -0.936899  -1.060516  -0.000000   0.000000
   11  O  1  X   -0.324639   0.000000  -0.000000   0.000000   1.018593
   12  O  1  Y   -0.000000   0.000000  -0.000000   1.018597  -0.000000
   13  O  1  Z    0.000000  -1.069533   0.092269  -0.000000   0.000000
   14  O  1  S    0.000000   1.729251  20.542181  -0.000000   0.000000
   15  O  1  X    1.830570   0.000000  -0.000000  -0.000000  -0.466290
   16  O  1  Y    0.000000   0.000000  -0.000000  -0.466293   0.000000
   17  O  1  Z    0.000000   1.074953   6.941624  -0.000000   0.000000
   18  O  1 XX    0.000000  -0.008725   0.025065  -0.000000   0.000000
   19  O  1 YY    0.000000  -0.008725   0.025065  -0.000000   0.000000
   20  O  1 ZZ    0.000000   0.028287   0.014383  -0.000000   0.000000
   21  O  1 XY    0.000000   0.000000  -0.000000  -0.000000   0.000000
   22  O  1 XZ   -0.007315   0.000000  -0.000000  -0.000000  -0.017389
   23  O  1 YZ   -0.000000   0.000000  -0.000000  -0.017389   0.000000
   24  O  2  S    0.000000  -0.034564  -0.021168  -0.000000   0.000000
   25  O  2  S    0.000000  -0.059421  -0.041075  -0.000000   0.000000
   26  O  2  X    0.078627   0.000000  -0.000000  -0.000000  -0.189219
   27  O  2  Y    0.000000   0.000000  -0.000000  -0.189219   0.000000
   28  O  2  Z    0.000000  -0.262608   0.005969  -0.000000   0.000000
   29  O  2  S    0.000000   0.190590   0.075872  -0.000000   0.000000
   30  O  2  X    0.080226   0.000000  -0.000000  -0.000000  -0.586712
   31  O  2  Y    0.000000   0.000000  -0.000000  -0.586711   0.000000
   32  O  2  Z    0.000000  -0.376502  -0.019235  -0.000000   0.000000
   33  O  2  S    0.000000   0.936896   1.060515  -0.000000   0.000000
   34  O  2  X    0.324639   0.000000  -0.000000   0.000000   1.018628
   35  O  2  Y    0.000000   0.000000  -0.000000   1.018624  -0.000000
   36  O  2  Z    0.000000  -1.069527   0.092353  -0.000000   0.000000
   37  O  2  S    0.000000  -1.729244 -20.542154  -0.000000   0.000000
   38  O  2  X   -1.830569   0.000000  -0.000000  -0.000000  -0.466315
   39  O  2  Y   -0.000000   0.000000  -0.000000  -0.466312   0.000000
   40  O  2  Z    0.000000   1.074945   6.941438  -0.000000   0.000000
   41  O  2 XX    0.000000   0.008724  -0.025092  -0.000000   0.000000
   42  O  2 YY    0.000000   0.008724  -0.025092  -0.000000   0.000000
   43  O  2 ZZ    0.000000  -0.028289  -0.014408  -0.000000   0.000000
   44  O  2 XY    0.000000   0.000000  -0.000000  -0.000000   0.000000
   45  O  2 XZ   -0.007315   0.000000  -0.000000   0.000000   0.017389
   46  O  2 YZ   -0.000000   0.000000  -0.000000   0.017389  -0.000000

                     21         22         23         24         25
                    0.9407     0.9503     0.9968     0.9968     1.0850
                     A          A          A          A          A   
    1  O  1  S    0.011321  -0.010990   0.000000  -0.000000   0.072310
    2  O  1  S    0.021355  -0.018123   0.000000  -0.000000   0.094216
    3  O  1  X    0.000000  -0.000000   0.000000  -0.175167   0.000000
    4  O  1  Y    0.000000  -0.000000  -0.175166  -0.000000   0.000000
    5  O  1  Z    0.125395  -0.198818   0.000000  -0.000000   0.030806
    6  O  1  S    0.003332   0.042908   0.000000  -0.000000  -1.072190
    7  O  1  X    0.000000  -0.000000   0.000000  -0.554222   0.000000
    8  O  1  Y    0.000000  -0.000000  -0.554221  -0.000000   0.000000
    9  O  1  Z    0.566381  -0.532878   0.000000  -0.000000  -0.042217
   10  O  1  S    0.246863   1.803086   0.000000  -0.000000   1.854226
   11  O  1  X    0.000000  -0.000000  -0.000000   1.552330   0.000000
   12  O  1  Y    0.000000  -0.000000   1.552327   0.000000   0.000000
   13  O  1  Z   -1.234010   2.475473   0.000000  -0.000000   0.072014
   14  O  1  S   -0.246444   0.194037   0.000000  -0.000000  -0.698378
   15  O  1  X    0.000000  -0.000000   0.000000  -1.131395   0.000000
   16  O  1  Y    0.000000  -0.000000  -1.131394  -0.000000   0.000000
   17  O  1  Z    0.854834  -0.496741   0.000000  -0.000000  -0.302054
   18  O  1 XX   -0.021726  -0.006424   0.000000  -0.000000  -0.120422
   19  O  1 YY   -0.021726  -0.006424   0.000000  -0.000000  -0.120422
   20  O  1 ZZ    0.088642   0.017663   0.000000  -0.000000  -0.225540
   21  O  1 XY    0.000000  -0.000000   0.000000  -0.000000   0.000000
   22  O  1 XZ    0.000000  -0.000000   0.000000  -0.019780   0.000000
   23  O  1 YZ    0.000000  -0.000000  -0.019780  -0.000000   0.000000
   24  O  2  S    0.011328   0.010986   0.000000  -0.000000   0.072319
   25  O  2  S    0.021364   0.018115   0.000000  -0.000000   0.094229
   26  O  2  X    0.000000  -0.000000  -0.000000   0.175162   0.000000
   27  O  2  Y    0.000000  -0.000000   0.175163   0.000000   0.000000
   28  O  2  Z   -0.125427  -0.198795   0.000000  -0.000000  -0.030807
   29  O  2  S    0.003260  -0.042879   0.000000  -0.000000  -1.072340
   30  O  2  X    0.000000  -0.000000  -0.000000   0.554209   0.000000
   31  O  2  Y    0.000000  -0.000000   0.554211   0.000000   0.000000
   32  O  2  Z   -0.566475  -0.532781   0.000000  -0.000000   0.042201
   33  O  2  S    0.246743  -1.803161   0.000000  -0.000000   1.854732
   34  O  2  X    0.000000  -0.000000   0.000000  -1.552307   0.000000
   35  O  2  Y    0.000000  -0.000000  -1.552310  -0.000000   0.000000
   36  O  2  Z    1.234346   2.475262   0.000000  -0.000000  -0.072171
   37  O  2  S   -0.245690  -0.193982   0.000000  -0.000000  -0.699009
   38  O  2  X    0.000000  -0.000000  -0.000000   1.131385   0.000000
   39  O  2  Y    0.000000  -0.000000   1.131386   0.000000   0.000000
   40  O  2  Z   -0.855204  -0.496604   0.000000  -0.000000   0.302234
   41  O  2 XX   -0.021735   0.006425   0.000000  -0.000000  -0.120440
   42  O  2 YY   -0.021735   0.006425   0.000000  -0.000000  -0.120440
   43  O  2 ZZ    0.088630  -0.017679   0.000000  -0.000000  -0.225555
   44  O  2 XY    0.000000  -0.000000   0.000000  -0.000000   0.000000
   45  O  2 XZ    0.000000  -0.000000   0.000000  -0.019780   0.000000
   46  O  2 YZ    0.000000  -0.000000  -0.019780  -0.000000   0.000000

                     26         27         28         29         30
                    1.3864     2.2329     2.2329     2.5282     2.5282
                     A          A          A          A          A   
    1  O  1  S   -0.072059   0.000000   0.000000   0.000000   0.000000
    2  O  1  S   -0.094603   0.000000   0.000000   0.000000   0.000000
    3  O  1  X    0.000000  -0.000000  -0.083262   0.000000   0.000000
    4  O  1  Y    0.000000  -0.083262   0.000000   0.000000   0.000000
    5  O  1  Z    0.015872   0.000000   0.000000  -0.000000   0.000000
    6  O  1  S    1.252758   0.000000   0.000000  -0.000000   0.000000
    7  O  1  X    0.000000   0.000000   0.024943   0.000000   0.000000
    8  O  1  Y    0.000000   0.024943  -0.000000   0.000000   0.000000
    9  O  1  Z   -0.053428   0.000000   0.000000   0.000000   0.000000
   10  O  1  S   -4.856067   0.000000   0.000000  -0.000000   0.000000
   11  O  1  X    0.000000  -0.000000  -0.106397   0.000000   0.000000
   12  O  1  Y    0.000000  -0.106397   0.000000   0.000000   0.000000
   13  O  1  Z   -1.723786   0.000000   0.000000  -0.000000   0.000000
   14  O  1  S   10.668000   0.000000   0.000000   0.000000   0.000000
   15  O  1  X    0.000000   0.000000   0.057221   0.000000   0.000000
   16  O  1  Y    0.000000   0.057221  -0.000000   0.000000   0.000000
   17  O  1  Z    3.444282   0.000000   0.000000   0.000000   0.000000
   18  O  1 XX    0.158339   0.000000   0.000000   0.602043   0.000000
   19  O  1 YY    0.158339   0.000000   0.000000  -0.602043  -0.000000
   20  O  1 ZZ    0.161068   0.000000   0.000000  -0.000000   0.000000
   21  O  1 XY    0.000000   0.000000   0.000000  -0.000000   0.695179
   22  O  1 XZ    0.000000   0.000000   0.646418   0.000000   0.000000
   23  O  1 YZ    0.000000   0.646418  -0.000000   0.000000   0.000000
   24  O  2  S    0.072049   0.000000   0.000000  -0.000000   0.000000
   25  O  2  S    0.094588   0.000000   0.000000  -0.000000   0.000000
   26  O  2  X    0.000000  -0.000000  -0.083262   0.000000   0.000000
   27  O  2  Y    0.000000  -0.083262   0.000000   0.000000   0.000000
   28  O  2  Z    0.015885   0.000000   0.000000  -0.000000   0.000000
   29  O  2  S   -1.252624   0.000000   0.000000   0.000000   0.000000
   30  O  2  X    0.000000   0.000000   0.024944   0.000000   0.000000
   31  O  2  Y    0.000000   0.024944  -0.000000   0.000000   0.000000
   32  O  2  Z   -0.053408   0.000000   0.000000  -0.000000   0.000000
   33  O  2  S    4.855836   0.000000   0.000000   0.000000   0.000000
   34  O  2  X    0.000000  -0.000000  -0.106397   0.000000   0.000000
   35  O  2  Y    0.000000  -0.106397   0.000000   0.000000   0.000000
   36  O  2  Z   -1.723841   0.000000   0.000000  -0.000000   0.000000
   37  O  2  S  -10.667899   0.000000   0.000000  -0.000000   0.000000
   38  O  2  X    0.000000   0.000000   0.057220   0.000000   0.000000
   39  O  2  Y    0.000000   0.057220  -0.000000   0.000000   0.000000
   40  O  2  Z    3.444285   0.000000   0.000000   0.000000   0.000000
   41  O  2 XX   -0.158331   0.000000   0.000000   0.602042   0.000000
   42  O  2 YY   -0.158331   0.000000   0.000000  -0.602042  -0.000000
   43  O  2 ZZ   -0.161052   0.000000   0.000000   0.000000   0.000000
   44  O  2 XY    0.000000   0.000000   0.000000  -0.000000   0.695178
   45  O  2 XZ    0.000000  -0.000000  -0.646417   0.000000   0.000000
   46  O  2 YZ    0.000000  -0.646417   0.000000   0.000000   0.000000

                     31         32         33         34         35
                    2.7935     2.7935     2.8434     3.4197     3.4197
                     A          A          A          A          A   
    1  O  1  S    0.000000  -0.000000   0.028099   0.000000  -0.000000
    2  O  1  S    0.000000  -0.000000   0.047970   0.000000  -0.000000
    3  O  1  X    0.000000   0.000000  -0.000000  -0.000000   0.074854
    4  O  1  Y    0.000000   0.000000  -0.000000   0.074854   0.000000
    5  O  1  Z    0.000000   0.000000  -0.121340   0.000000  -0.000000
    6  O  1  S    0.000000   0.000000  -0.384978   0.000000  -0.000000
    7  O  1  X    0.000000   0.000000  -0.000000   0.000000  -0.116643
    8  O  1  Y    0.000000   0.000000  -0.000000  -0.116643  -0.000000
    9  O  1  Z    0.000000   0.000000  -0.242552   0.000000  -0.000000
   10  O  1  S    0.000000  -0.000000   0.228456   0.000000  -0.000000
   11  O  1  X    0.000000   0.000000  -0.000000  -0.000000   0.385499
   12  O  1  Y    0.000000   0.000000  -0.000000   0.385499   0.000000
   13  O  1  Z    0.000000  -0.000000   0.366737   0.000000  -0.000000
   14  O  1  S    0.000000   0.000000  -0.015647   0.000000  -0.000000
   15  O  1  X    0.000000   0.000000  -0.000000   0.000000  -0.185404
   16  O  1  Y    0.000000   0.000000  -0.000000  -0.185404  -0.000000
   17  O  1  Z    0.000000   0.000000  -0.157985   0.000000  -0.000000
   18  O  1 XX   -0.000000   0.623253  -0.340042   0.000000  -0.000000
   19  O  1 YY    0.000000  -0.623253  -0.340042   0.000000  -0.000000
   20  O  1 ZZ    0.000000  -0.000000   0.638510   0.000000  -0.000000
   21  O  1 XY   -0.719670  -0.000000  -0.000000   0.000000  -0.000000
   22  O  1 XZ    0.000000   0.000000  -0.000000  -0.000000   0.804428
   23  O  1 YZ    0.000000   0.000000  -0.000000   0.804428   0.000000
   24  O  2  S    0.000000  -0.000000   0.028099   0.000000  -0.000000
   25  O  2  S    0.000000  -0.000000   0.047971   0.000000  -0.000000
   26  O  2  X    0.000000   0.000000  -0.000000   0.000000  -0.074854
   27  O  2  Y    0.000000   0.000000  -0.000000  -0.074854  -0.000000
   28  O  2  Z    0.000000  -0.000000   0.121339   0.000000  -0.000000
   29  O  2  S    0.000000   0.000000  -0.384979   0.000000  -0.000000
   30  O  2  X    0.000000   0.000000  -0.000000  -0.000000   0.116644
   31  O  2  Y    0.000000   0.000000  -0.000000   0.116644   0.000000
   32  O  2  Z    0.000000  -0.000000   0.242553   0.000000  -0.000000
   33  O  2  S    0.000000  -0.000000   0.228443   0.000000  -0.000000
   34  O  2  X    0.000000   0.000000  -0.000000   0.000000  -0.385500
   35  O  2  Y    0.000000   0.000000  -0.000000  -0.385500  -0.000000
   36  O  2  Z    0.000000   0.000000  -0.366733   0.000000  -0.000000
   37  O  2  S    0.000000   0.000000  -0.015627   0.000000  -0.000000
   38  O  2  X    0.000000   0.000000  -0.000000  -0.000000   0.185404
   39  O  2  Y    0.000000   0.000000  -0.000000   0.185404   0.000000
   40  O  2  Z    0.000000  -0.000000   0.157980   0.000000  -0.000000
   41  O  2 XX    0.000000  -0.623253  -0.340039   0.000000  -0.000000
   42  O  2 YY   -0.000000   0.623253  -0.340039   0.000000  -0.000000
   43  O  2 ZZ    0.000000  -0.000000   0.638513   0.000000  -0.000000
   44  O  2 XY    0.719671   0.000000  -0.000000   0.000000  -0.000000
   45  O  2 XZ    0.000000   0.000000  -0.000000  -0.000000   0.804428
   46  O  2 YZ    0.000000   0.000000  -0.000000   0.804428   0.000000

                     36         37         38         39         40
                    3.8237     4.6936     4.6936     4.7837     4.9392
                     A          A          A          A          A   
    1  O  1  S   -0.012479   0.000000  -0.000000  -0.011619  -0.000000
    2  O  1  S   -0.034297   0.000000  -0.000000  -0.027030  -0.000000
    3  O  1  X   -0.000000   0.000000  -0.891019   0.000000  -0.000000
    4  O  1  Y   -0.000000  -0.891020  -0.000000   0.000000  -0.902255
    5  O  1  Z    0.384889   0.000000  -0.000000   0.895156  -0.000000
    6  O  1  S   -0.105760   0.000000  -0.000000   0.053970  -0.000000
    7  O  1  X   -0.000000  -0.000000   1.060709   0.000000   0.000000
    8  O  1  Y   -0.000000   1.060710   0.000000   0.000000   1.118440
    9  O  1  Z   -0.242213   0.000000  -0.000000  -1.002462  -0.000000
   10  O  1  S    2.165256   0.000000  -0.000000  -0.045486  -0.000000
   11  O  1  X   -0.000000   0.000000  -0.544209   0.000000  -0.000000
   12  O  1  Y   -0.000000  -0.544210  -0.000000   0.000000  -0.733241
   13  O  1  Z    1.489483   0.000000  -0.000000   0.631450  -0.000000
   14  O  1  S   -2.100179   0.000000  -0.000000   0.075562  -0.000000
   15  O  1  X   -0.000000  -0.000000   0.181054   0.000000   0.000000
   16  O  1  Y   -0.000000   0.181054   0.000000   0.000000   0.397553
   17  O  1  Z   -0.853928   0.000000  -0.000000  -0.304118  -0.000000
   18  O  1 XX   -0.480561   0.000000  -0.000000  -0.120642  -0.000000
   19  O  1 YY   -0.480561   0.000000  -0.000000  -0.120642  -0.000000
   20  O  1 ZZ    0.755702   0.000000  -0.000000   0.113030  -0.000000
   21  O  1 XY   -0.000000   0.000000  -0.000000   0.000000  -0.000000
   22  O  1 XZ   -0.000000   0.000000  -0.076794   0.000000   0.000000
   23  O  1 YZ   -0.000000  -0.076794  -0.000000   0.000000   0.099886
   24  O  2  S    0.012479   0.000000  -0.000000  -0.011618  -0.000000
   25  O  2  S    0.034296   0.000000  -0.000000  -0.027026  -0.000000
   26  O  2  X   -0.000000   0.000000  -0.891029   0.000000   0.000000
   27  O  2  Y   -0.000000  -0.891028  -0.000000   0.000000   0.902247
   28  O  2  Z    0.384887   0.000000  -0.000000  -0.895165  -0.000000
   29  O  2  S    0.105760   0.000000  -0.000000   0.053952  -0.000000
   30  O  2  X   -0.000000  -0.000000   1.060721   0.000000  -0.000000
   31  O  2  Y   -0.000000   1.060719   0.000000   0.000000  -1.118431
   32  O  2  Z   -0.242211   0.000000  -0.000000   1.002474  -0.000000
   33  O  2  S   -2.165247   0.000000  -0.000000  -0.045486  -0.000000
   34  O  2  X   -0.000000   0.000000  -0.544216   0.000000   0.000000
   35  O  2  Y   -0.000000  -0.544215  -0.000000   0.000000   0.733235
   36  O  2  Z    1.489483   0.000000  -0.000000  -0.631456  -0.000000
   37  O  2  S    2.100175   0.000000  -0.000000   0.075496  -0.000000
   38  O  2  X   -0.000000  -0.000000   0.181057   0.000000  -0.000000
   39  O  2  Y   -0.000000   0.181057   0.000000   0.000000  -0.397551
   40  O  2  Z   -0.853928   0.000000  -0.000000   0.304142  -0.000000
   41  O  2 XX    0.480559   0.000000  -0.000000  -0.120632  -0.000000
   42  O  2 YY    0.480559   0.000000  -0.000000  -0.120632  -0.000000
   43  O  2 ZZ   -0.755704   0.000000  -0.000000   0.113036  -0.000000
   44  O  2 XY   -0.000000   0.000000  -0.000000   0.000000  -0.000000
   45  O  2 XZ   -0.000000  -0.000000   0.076793   0.000000   0.000000
   46  O  2 YZ   -0.000000   0.076793   0.000000   0.000000   0.099887

                     41         42         43         44         45
                    4.9392     5.6402     5.8151     7.0447    54.9460
                     A          A          A          A          A   
    1  O  1  S   -0.000000  -0.093892  -0.136051   0.093366  -1.638944
    2  O  1  S   -0.000000  -0.326031  -0.479001   0.366121   1.909062
    3  O  1  X   -0.902256   0.000000  -0.000000  -0.000000   0.000000
    4  O  1  Y    0.000000   0.000000  -0.000000  -0.000000   0.000000
    5  O  1  Z   -0.000000  -0.639883  -0.054089  -0.631011   0.000053
    6  O  1  S   -0.000000   1.062141   1.746752  -1.427104  -0.761326
    7  O  1  X    1.118441   0.000000  -0.000000  -0.000000   0.000000
    8  O  1  Y   -0.000000   0.000000  -0.000000  -0.000000   0.000000
    9  O  1  Z   -0.000000   1.009175   0.061097   1.232342  -0.002762
   10  O  1  S   -0.000000   1.840016   0.955807  -1.010708  -0.240428
   11  O  1  X   -0.733241   0.000000  -0.000000  -0.000000   0.000000
   12  O  1  Y    0.000000   0.000000  -0.000000  -0.000000   0.000000
   13  O  1  Z   -0.000000   0.154162   0.015399  -0.510622  -0.009876
   14  O  1  S   -0.000000  -3.766348  -0.278830   1.706954   0.071582
   15  O  1  X    0.397553   0.000000  -0.000000  -0.000000   0.000000
   16  O  1  Y   -0.000000   0.000000  -0.000000  -0.000000   0.000000
   17  O  1  Z   -0.000000  -1.097668  -0.087713   0.586503   0.027031
   18  O  1 XX   -0.000000  -0.905175  -1.119647   0.660277   0.386791
   19  O  1 YY   -0.000000  -0.905175  -1.119647   0.660277   0.386791
   20  O  1 ZZ   -0.000000  -0.315663  -0.967679   1.575031   0.358813
   21  O  1 XY   -0.000000   0.000000  -0.000000  -0.000000   0.000000
   22  O  1 XZ    0.099886   0.000000  -0.000000  -0.000000   0.000000
   23  O  1 YZ   -0.000000   0.000000  -0.000000  -0.000000   0.000000
   24  O  2  S   -0.000000   0.093917  -0.136035  -0.093364  -1.638999
   25  O  2  S   -0.000000   0.326118  -0.478949  -0.366114   1.909127
   26  O  2  X    0.902246   0.000000  -0.000000  -0.000000   0.000000
   27  O  2  Y   -0.000000   0.000000  -0.000000  -0.000000   0.000000
   28  O  2  Z   -0.000000  -0.639882   0.053963  -0.631012  -0.000052
   29  O  2  S   -0.000000  -1.062456   1.746591   1.427073  -0.761353
   30  O  2  X   -1.118430   0.000000  -0.000000  -0.000000   0.000000
   31  O  2  Y    0.000000   0.000000  -0.000000  -0.000000   0.000000
   32  O  2  Z   -0.000000   1.009171  -0.060891   1.232344   0.002759
   33  O  2  S   -0.000000  -1.840186   0.955446   1.010693  -0.240446
   34  O  2  X    0.733235   0.000000  -0.000000  -0.000000   0.000000
   35  O  2  Y   -0.000000   0.000000  -0.000000  -0.000000   0.000000
   36  O  2  Z   -0.000000   0.154178  -0.015384  -0.510624   0.009882
   37  O  2  S   -0.000000   3.766395  -0.277606  -1.706949   0.071611
   38  O  2  X   -0.397551   0.000000  -0.000000  -0.000000   0.000000
   39  O  2  Y    0.000000   0.000000  -0.000000  -0.000000   0.000000
   40  O  2  Z   -0.000000  -1.097689   0.087331   0.586502  -0.027040
   41  O  2 XX   -0.000000   0.905379  -1.119494  -0.660259   0.386805
   42  O  2 YY   -0.000000   0.905379  -1.119494  -0.660259   0.386805
   43  O  2 ZZ   -0.000000   0.315836  -0.967646  -1.575015   0.358829
   44  O  2 XY   -0.000000   0.000000  -0.000000  -0.000000   0.000000
   45  O  2 XZ    0.099887   0.000000  -0.000000  -0.000000   0.000000
   46  O  2 YZ   -0.000000   0.000000  -0.000000  -0.000000   0.000000

                     46
                   55.3144
                     A   
    1  O  1  S   -1.644358
    2  O  1  S    1.929867
    3  O  1  X   -0.000000
    4  O  1  Y   -0.000000
    5  O  1  Z   -0.033861
    6  O  1  S   -0.805751
    7  O  1  X   -0.000000
    8  O  1  Y   -0.000000
    9  O  1  Z    0.097556
   10  O  1  S   -0.553297
   11  O  1  X   -0.000000
   12  O  1  Y   -0.000000
   13  O  1  Z   -0.156445
   14  O  1  S    1.070758
   15  O  1  X   -0.000000
   16  O  1  Y   -0.000000
   17  O  1  Z    0.337068
   18  O  1 XX    0.408491
   19  O  1 YY    0.408491
   20  O  1 ZZ    0.488561
   21  O  1 XY   -0.000000
   22  O  1 XZ   -0.000000
   23  O  1 YZ   -0.000000
   24  O  2  S    1.644303
   25  O  2  S   -1.929802
   26  O  2  X   -0.000000
   27  O  2  Y   -0.000000
   28  O  2  Z   -0.033861
   29  O  2  S    0.805724
   30  O  2  X   -0.000000
   31  O  2  Y   -0.000000
   32  O  2  Z    0.097556
   33  O  2  S    0.553289
   34  O  2  X   -0.000000
   35  O  2  Y   -0.000000
   36  O  2  Z   -0.156445
   37  O  2  S   -1.070756
   38  O  2  X   -0.000000
   39  O  2  Y   -0.000000
   40  O  2  Z    0.337068
   41  O  2 XX   -0.408478
   42  O  2 YY   -0.408478
   43  O  2 ZZ   -0.488549
   44  O  2 XY   -0.000000
   45  O  2 XZ   -0.000000
   46  O  2 YZ   -0.000000

 LZ VALUE ANALYSIS FOR THE MOS
 ----------------------------------------
 MO     1 (    1) HAS LZ(WEIGHT)= 0.00(100.0%) 
 MO     2 (    2) HAS LZ(WEIGHT)= 0.00(100.0%) 
 MO     3 (    3) HAS LZ(WEIGHT)= 0.00(100.0%) 
 MO     4 (    4) HAS LZ(WEIGHT)= 0.00(100.0%) 
 MO     5 (    5) HAS LZ(WEIGHT)= 0.00(100.0%) 
 MO     6 (    6) HAS LZ(WEIGHT)=-1.00( 50.0%)  1.00( 50.0%) 
 MO     7 (    6) HAS LZ(WEIGHT)=-1.00( 50.0%)  1.00( 50.0%) 
 MO     8 (    7) HAS LZ(WEIGHT)=-1.00( 50.0%)  1.00( 50.0%) 
 MO     9 (    7) HAS LZ(WEIGHT)=-1.00( 50.0%)  1.00( 50.0%) 
 MO    10 (    8) HAS LZ(WEIGHT)= 0.00(100.0%) 
 MO    11 (    9) HAS LZ(WEIGHT)= 0.00(100.0%) 
 MO    12 (   10) HAS LZ(WEIGHT)=-1.00( 50.0%)  1.00( 50.0%) 
 MO    13 (   10) HAS LZ(WEIGHT)=-1.00( 50.0%)  1.00( 50.0%) 
 MO    14 (   11) HAS LZ(WEIGHT)= 0.00(100.0%) 
 MO    15 (   12) HAS LZ(WEIGHT)=-1.00( 50.0%)  1.00( 50.0%) 
 MO    16 (   12) HAS LZ(WEIGHT)=-1.00( 50.0%)  1.00( 50.0%) 
 MO    17 (   13) HAS LZ(WEIGHT)= 0.00(100.0%) 
 MO    18 (   14) HAS LZ(WEIGHT)= 0.00(100.0%) 
 MO    19 (   15) HAS LZ(WEIGHT)= 0.00(100.0%) 
 MO    20 (   16) HAS LZ(WEIGHT)=-1.00( 50.0%)  1.00( 50.0%) 
 MO    21 (   16) HAS LZ(WEIGHT)=-1.00( 50.0%)  1.00( 50.0%) 
 MO    22 (   17) HAS LZ(WEIGHT)= 0.00(100.0%) 
 MO    23 (   18) HAS LZ(WEIGHT)=-1.00( 50.0%)  1.00( 50.0%) 
 MO    24 (   18) HAS LZ(WEIGHT)=-1.00( 50.0%)  1.00( 50.0%) 
 MO    25 (   19) HAS LZ(WEIGHT)= 0.00(100.0%) 
 MO    26 (   20) HAS LZ(WEIGHT)= 0.00(100.0%) 
 MO    27 (   21) HAS LZ(WEIGHT)=-1.00( 50.0%)  1.00( 50.0%) 
 MO    28 (   21) HAS LZ(WEIGHT)=-1.00( 50.0%)  1.00( 50.0%) 
 MO    29 (   22) HAS LZ(WEIGHT)=-2.00( 50.0%)  2.00( 50.0%) 
 MO    30 (   22) HAS LZ(WEIGHT)=-2.00( 50.0%)  2.00( 50.0%) 
 MO    31 (   23) HAS LZ(WEIGHT)=-2.00( 50.0%)  2.00( 50.0%) 
 MO    32 (   23) HAS LZ(WEIGHT)=-2.00( 50.0%)  2.00( 50.0%) 
 MO    33 (   24) HAS LZ(WEIGHT)= 0.00(100.0%) 
 MO    34 (   25) HAS LZ(WEIGHT)=-1.00( 50.0%)  1.00( 50.0%) 
 MO    35 (   25) HAS LZ(WEIGHT)=-1.00( 50.0%)  1.00( 50.0%) 
 MO    36 (   26) HAS LZ(WEIGHT)= 0.00(100.0%) 
 MO    37 (   27) HAS LZ(WEIGHT)=-1.00( 50.0%)  1.00( 50.0%) 
 MO    38 (   27) HAS LZ(WEIGHT)=-1.00( 50.0%)  1.00( 50.0%) 
 MO    39 (   28) HAS LZ(WEIGHT)= 0.00(100.0%) 
 MO    40 (   29) HAS LZ(WEIGHT)=-1.00( 50.0%)  1.00( 50.0%) 
 MO    41 (   29) HAS LZ(WEIGHT)=-1.00( 50.0%)  1.00( 50.0%) 
 MO    42 (   30) HAS LZ(WEIGHT)= 0.00(100.0%) 
 MO    43 (   31) HAS LZ(WEIGHT)= 0.00(100.0%) 
 MO    44 (   32) HAS LZ(WEIGHT)= 0.00(100.0%) 
 MO    45 (   33) HAS LZ(WEIGHT)= 0.00(100.0%) 
 MO    46 (   34) HAS LZ(WEIGHT)= 0.00(100.0%) 

  ----- BETA SET ----- 

          ------------
          EIGENVECTORS
          ------------

                      1          2          3          4          5
                  -19.2652   -19.2648    -1.2635    -0.7585    -0.5215
                     A          A          A          A          A   
    1  O  1  S    0.391507  -0.389337  -0.083560   0.090356  -0.032733
    2  O  1  S    0.330908  -0.328992  -0.132893   0.147202  -0.054593
    3  O  1  X    0.000000   0.000000   0.000000   0.000000  -0.000000
    4  O  1  Y    0.000000   0.000000   0.000000   0.000000  -0.000000
    5  O  1  Z    0.001175  -0.001285   0.085507   0.067130  -0.212200
    6  O  1  S    0.013363  -0.013440   0.391293  -0.444603   0.152936
    7  O  1  X    0.000000   0.000000   0.000000   0.000000  -0.000000
    8  O  1  Y    0.000000   0.000000   0.000000   0.000000  -0.000000
    9  O  1  Z   -0.000362   0.000833   0.137827   0.087256  -0.316791
   10  O  1  S    0.000649  -0.002178   0.223818  -0.456221   0.222116
   11  O  1  X    0.000000   0.000000   0.000000   0.000000  -0.000000
   12  O  1  Y    0.000000   0.000000   0.000000   0.000000  -0.000000
   13  O  1  Z    0.000294  -0.001047   0.038402   0.025843  -0.194133
   14  O  1  S   -0.000203   0.004086  -0.011541   0.161739   0.048205
   15  O  1  X    0.000000   0.000000   0.000000   0.000000  -0.000000
   16  O  1  Y    0.000000   0.000000   0.000000   0.000000  -0.000000
   17  O  1  Z   -0.000216   0.001390  -0.011607   0.063503  -0.006732
   18  O  1 XX   -0.003857   0.003890  -0.011910   0.002256   0.005104
   19  O  1 YY   -0.003857   0.003890  -0.011910   0.002256   0.005104
   20  O  1 ZZ   -0.003376   0.003952   0.028112   0.005883  -0.025216
   21  O  1 XY    0.000000   0.000000   0.000000   0.000000  -0.000000
   22  O  1 XZ    0.000000   0.000000   0.000000   0.000000  -0.000000
   23  O  1 YZ    0.000000   0.000000   0.000000   0.000000  -0.000000
   24  O  2  S    0.389301   0.391543  -0.083561  -0.090356  -0.032733
   25  O  2  S    0.329043   0.330857  -0.132893  -0.147202  -0.054593
   26  O  2  X    0.000000   0.000000   0.000000   0.000000  -0.000000
   27  O  2  Y    0.000000   0.000000   0.000000   0.000000  -0.000000
   28  O  2  Z   -0.001168  -0.001291  -0.085507   0.067131   0.212200
   29  O  2  S    0.013287   0.013516   0.391298   0.444605   0.152935
   30  O  2  X    0.000000   0.000000   0.000000   0.000000  -0.000000
   31  O  2  Y    0.000000   0.000000   0.000000   0.000000  -0.000000
   32  O  2  Z    0.000358   0.000835  -0.137826   0.087256   0.316791
   33  O  2  S    0.000639   0.002181   0.223800   0.456222   0.222131
   34  O  2  X    0.000000   0.000000   0.000000   0.000000  -0.000000
   35  O  2  Y    0.000000   0.000000   0.000000   0.000000  -0.000000
   36  O  2  Z   -0.000288  -0.001049  -0.038402   0.025844   0.194129
   37  O  2  S   -0.000194  -0.004087  -0.011276  -0.161741   0.048050
   38  O  2  X    0.000000   0.000000   0.000000   0.000000  -0.000000
   39  O  2  Y    0.000000   0.000000   0.000000   0.000000  -0.000000
   40  O  2  Z    0.000213   0.001391   0.011516   0.063503   0.006786
   41  O  2 XX   -0.003836  -0.003911  -0.011909  -0.002257   0.005103
   42  O  2 YY   -0.003836  -0.003911  -0.011909  -0.002257   0.005103
   43  O  2 ZZ   -0.003354  -0.003971   0.028113  -0.005884  -0.025217
   44  O  2 XY    0.000000   0.000000   0.000000   0.000000  -0.000000
   45  O  2 XZ    0.000000   0.000000   0.000000   0.000000  -0.000000
   46  O  2 YZ    0.000000   0.000000   0.000000   0.000000  -0.000000

                      6          7          8          9         10
                   -0.4713    -0.4713    -0.1275    -0.1275     0.0867
                     A          A          A          A          A   
    1  O  1  S   -0.000000  -0.000000   0.000000   0.000000   0.027916
    2  O  1  S   -0.000000  -0.000000   0.000000   0.000000   0.050551
    3  O  1  X    0.000000   0.204528  -0.000000  -0.234651  -0.000000
    4  O  1  Y    0.204528  -0.000000  -0.234650   0.000000  -0.000000
    5  O  1  Z   -0.000000  -0.000000   0.000000   0.000000   0.050419
    6  O  1  S   -0.000000  -0.000000   0.000000   0.000000  -0.132815
    7  O  1  X    0.000000   0.305253  -0.000000  -0.341492  -0.000000
    8  O  1  Y    0.305253  -0.000000  -0.341492   0.000000  -0.000000
    9  O  1  Z   -0.000000  -0.000000   0.000000   0.000000   0.047698
   10  O  1  S   -0.000000  -0.000000   0.000000   0.000000  -0.686396
   11  O  1  X    0.000000   0.251608  -0.000000  -0.376672  -0.000000
   12  O  1  Y    0.251608  -0.000000  -0.376672   0.000000  -0.000000
   13  O  1  Z   -0.000000  -0.000000   0.000000   0.000000   0.172442
   14  O  1  S   -0.000000  -0.000000   0.000000   0.000000   0.948095
   15  O  1  X    0.000000   0.021115  -0.000000  -0.183905  -0.000000
   16  O  1  Y    0.021115  -0.000000  -0.183905   0.000000  -0.000000
   17  O  1  Z   -0.000000  -0.000000   0.000000   0.000000  -0.273516
   18  O  1 XX   -0.000000  -0.000000   0.000000   0.000000   0.018447
   19  O  1 YY   -0.000000  -0.000000   0.000000   0.000000   0.018447
   20  O  1 ZZ   -0.000000  -0.000000   0.000000   0.000000   0.009309
   21  O  1 XY   -0.000000  -0.000000   0.000000   0.000000  -0.000000
   22  O  1 XZ    0.000000   0.032090   0.000000   0.005938  -0.000000
   23  O  1 YZ    0.032090  -0.000000   0.005938  -0.000000  -0.000000
   24  O  2  S   -0.000000  -0.000000   0.000000   0.000000   0.027905
   25  O  2  S   -0.000000  -0.000000   0.000000   0.000000   0.050534
   26  O  2  X    0.000000   0.204527   0.000000   0.234651  -0.000000
   27  O  2  Y    0.204527  -0.000000   0.234651  -0.000000  -0.000000
   28  O  2  Z   -0.000000  -0.000000   0.000000   0.000000  -0.050435
   29  O  2  S   -0.000000  -0.000000   0.000000   0.000000  -0.132741
   30  O  2  X    0.000000   0.305253   0.000000   0.341493  -0.000000
   31  O  2  Y    0.305253  -0.000000   0.341493  -0.000000  -0.000000
   32  O  2  Z   -0.000000  -0.000000   0.000000   0.000000  -0.047727
   33  O  2  S   -0.000000  -0.000000   0.000000   0.000000  -0.686430
   34  O  2  X    0.000000   0.251608   0.000000   0.376672  -0.000000
   35  O  2  Y    0.251608  -0.000000   0.376672  -0.000000  -0.000000
   36  O  2  Z   -0.000000  -0.000000   0.000000   0.000000  -0.172417
   37  O  2  S   -0.000000  -0.000000   0.000000   0.000000   0.951529
   38  O  2  X    0.000000   0.021116   0.000000   0.183904  -0.000000
   39  O  2  Y    0.021116  -0.000000   0.183904  -0.000000  -0.000000
   40  O  2  Z   -0.000000  -0.000000   0.000000   0.000000   0.272082
   41  O  2 XX   -0.000000  -0.000000   0.000000   0.000000   0.018455
   42  O  2 YY   -0.000000  -0.000000   0.000000   0.000000   0.018455
   43  O  2 ZZ   -0.000000  -0.000000   0.000000   0.000000   0.009308
   44  O  2 XY   -0.000000  -0.000000   0.000000   0.000000  -0.000000
   45  O  2 XZ   -0.000000  -0.032090   0.000000   0.005938  -0.000000
   46  O  2 YZ   -0.032090   0.000000   0.005938  -0.000000  -0.000000

                     11         12         13         14         15
                    0.0957     0.1372     0.1372     0.1923     0.2175
                     A          A          A          A          A   
    1  O  1  S   -0.032860   0.000000  -0.000000  -0.007972   0.000000
    2  O  1  S   -0.055352   0.000000  -0.000000  -0.015404   0.000000
    3  O  1  X   -0.000000  -0.000000  -0.084477  -0.000000   0.000000
    4  O  1  Y   -0.000000  -0.084477   0.000000  -0.000000   0.094563
    5  O  1  Z    0.048417   0.000000  -0.000000   0.038328   0.000000
    6  O  1  S    0.193501   0.000000  -0.000000   0.030389   0.000000
    7  O  1  X   -0.000000  -0.000000  -0.089296  -0.000000   0.000000
    8  O  1  Y   -0.000000  -0.089296   0.000000  -0.000000   0.100060
    9  O  1  Z    0.095992   0.000000  -0.000000   0.035197   0.000000
   10  O  1  S    0.298605   0.000000  -0.000000   0.389896   0.000000
   11  O  1  X   -0.000000  -0.000000  -0.305898  -0.000000   0.000000
   12  O  1  Y   -0.000000  -0.305899   0.000000  -0.000000   0.391379
   13  O  1  Z   -0.012928   0.000000  -0.000000   0.147540   0.000000
   14  O  1  S    4.835496   0.000000  -0.000000  -0.019389   0.000000
   15  O  1  X   -0.000000   0.000000   0.675966  -0.000000  -0.000000
   16  O  1  Y   -0.000000   0.675967  -0.000000  -0.000000  -1.844895
   17  O  1  Z    2.383835   0.000000  -0.000000  -1.321398   0.000000
   18  O  1 XX    0.005268   0.000000  -0.000000  -0.019433   0.000000
   19  O  1 YY    0.005268   0.000000  -0.000000  -0.019433   0.000000
   20  O  1 ZZ   -0.014707   0.000000  -0.000000   0.014666   0.000000
   21  O  1 XY   -0.000000   0.000000  -0.000000  -0.000000   0.000000
   22  O  1 XZ   -0.000000  -0.000000  -0.013295  -0.000000   0.000000
   23  O  1 YZ   -0.000000  -0.013295   0.000000  -0.000000   0.006228
   24  O  2  S    0.032870   0.000000  -0.000000  -0.007975   0.000000
   25  O  2  S    0.055367   0.000000  -0.000000  -0.015411   0.000000
   26  O  2  X   -0.000000  -0.000000  -0.084477  -0.000000  -0.000000
   27  O  2  Y   -0.000000  -0.084477   0.000000  -0.000000  -0.094563
   28  O  2  Z    0.048396   0.000000  -0.000000  -0.038329   0.000000
   29  O  2  S   -0.193542   0.000000  -0.000000   0.030399   0.000000
   30  O  2  X   -0.000000  -0.000000  -0.089296  -0.000000  -0.000000
   31  O  2  Y   -0.000000  -0.089296   0.000000  -0.000000  -0.100060
   32  O  2  Z    0.095965   0.000000  -0.000000  -0.035205   0.000000
   33  O  2  S   -0.298822   0.000000  -0.000000   0.390058   0.000000
   34  O  2  X   -0.000000  -0.000000  -0.305900  -0.000000  -0.000000
   35  O  2  Y   -0.000000  -0.305899   0.000000  -0.000000  -0.391379
   36  O  2  Z   -0.012986   0.000000  -0.000000  -0.147529   0.000000
   37  O  2  S   -4.835157   0.000000  -0.000000  -0.021534   0.000000
   38  O  2  X   -0.000000   0.000000   0.675969  -0.000000   0.000000
   39  O  2  Y   -0.000000   0.675968  -0.000000  -0.000000   1.844895
   40  O  2  Z    2.383988   0.000000  -0.000000   1.322081   0.000000
   41  O  2 XX   -0.005269   0.000000  -0.000000  -0.019439   0.000000
   42  O  2 YY   -0.005269   0.000000  -0.000000  -0.019439   0.000000
   43  O  2 ZZ    0.014706   0.000000  -0.000000   0.014660   0.000000
   44  O  2 XY   -0.000000   0.000000  -0.000000  -0.000000   0.000000
   45  O  2 XZ   -0.000000   0.000000   0.013295  -0.000000   0.000000
   46  O  2 YZ   -0.000000   0.013295  -0.000000  -0.000000   0.006228

                     16         17         18         19         20
                    0.2175     0.2806     0.3416     0.9505     0.9637
                     A          A          A          A          A   
    1  O  1  S    0.000000  -0.038498   0.024151   0.007531  -0.000000
    2  O  1  S    0.000000  -0.065445   0.046042   0.016705  -0.000000
    3  O  1  X   -0.094563  -0.000000  -0.000000   0.000000   0.000000
    4  O  1  Y    0.000000  -0.000000  -0.000000   0.000000  -0.190799
    5  O  1  Z    0.000000   0.263989  -0.010068   0.123869  -0.000000
    6  O  1  S    0.000000   0.208607  -0.083222   0.066757  -0.000000
    7  O  1  X   -0.100060  -0.000000  -0.000000   0.000000   0.000000
    8  O  1  Y    0.000000  -0.000000  -0.000000   0.000000  -0.609557
    9  O  1  Z    0.000000   0.375217  -0.044201   0.573681  -0.000000
   10  O  1  S    0.000000   0.983588  -1.170082   0.123549  -0.000000
   11  O  1  X   -0.391379  -0.000000  -0.000000   0.000000  -0.000000
   12  O  1  Y    0.000000  -0.000000  -0.000000   0.000000   1.008529
   13  O  1  Z    0.000000   1.130820   0.018781  -1.236363  -0.000000
   14  O  1  S    0.000000  -0.242871  20.565530  -0.196010  -0.000000
   15  O  1  X    1.844895  -0.000000  -0.000000   0.000000   0.000000
   16  O  1  Y   -0.000000  -0.000000  -0.000000   0.000000  -0.453824
   17  O  1  Z    0.000000  -0.511489   6.951008   0.870060  -0.000000
   18  O  1 XX    0.000000   0.009096   0.025962  -0.011914  -0.000000
   19  O  1 YY    0.000000   0.009096   0.025962  -0.011914  -0.000000
   20  O  1 ZZ    0.000000  -0.026923   0.015554   0.099632  -0.000000
   21  O  1 XY    0.000000  -0.000000  -0.000000   0.000000  -0.000000
   22  O  1 XZ   -0.006228  -0.000000  -0.000000   0.000000   0.000000
   23  O  1 YZ    0.000000  -0.000000  -0.000000   0.000000  -0.023518
   24  O  2  S    0.000000   0.038497  -0.024148   0.007536  -0.000000
   25  O  2  S    0.000000   0.065445  -0.046044   0.016712  -0.000000
   26  O  2  X    0.094563  -0.000000  -0.000000   0.000000   0.000000
   27  O  2  Y   -0.000000  -0.000000  -0.000000   0.000000  -0.190802
   28  O  2  Z    0.000000   0.263990  -0.010074  -0.123891  -0.000000
   29  O  2  S    0.000000  -0.208604   0.083223   0.066699  -0.000000
   30  O  2  X    0.100060  -0.000000  -0.000000   0.000000   0.000000
   31  O  2  Y   -0.000000  -0.000000  -0.000000   0.000000  -0.609566
   32  O  2  Z    0.000000   0.375219  -0.044245  -0.573745  -0.000000
   33  O  2  S    0.000000  -0.983591   1.170072   0.123484  -0.000000
   34  O  2  X    0.391379  -0.000000  -0.000000   0.000000  -0.000000
   35  O  2  Y   -0.000000  -0.000000  -0.000000   0.000000   1.008552
   36  O  2  Z    0.000000   1.130819   0.018860   1.236575  -0.000000
   37  O  2  S    0.000000   0.242868 -20.565496  -0.195193  -0.000000
   38  O  2  X   -1.844895  -0.000000  -0.000000   0.000000   0.000000
   39  O  2  Y    0.000000  -0.000000  -0.000000   0.000000  -0.453840
   40  O  2  Z    0.000000  -0.511502   6.950836  -0.870416  -0.000000
   41  O  2 XX    0.000000  -0.009096  -0.025987  -0.011923  -0.000000
   42  O  2 YY    0.000000  -0.009096  -0.025987  -0.011923  -0.000000
   43  O  2 ZZ    0.000000   0.026922  -0.015578   0.099622  -0.000000
   44  O  2 XY    0.000000  -0.000000  -0.000000   0.000000  -0.000000
   45  O  2 XZ   -0.006228  -0.000000  -0.000000   0.000000  -0.000000
   46  O  2 YZ    0.000000  -0.000000  -0.000000   0.000000   0.023518

                     21         22         23         24         25
                    0.9637     0.9643     1.0429     1.0429     1.1060
                     A          A          A          A          A   
    1  O  1  S    0.000000  -0.010557   0.000000   0.000000   0.073341
    2  O  1  S    0.000000  -0.017264   0.000000   0.000000   0.094399
    3  O  1  X   -0.190799   0.000000   0.000000  -0.181074   0.000000
    4  O  1  Y   -0.000000   0.000000  -0.181074  -0.000000   0.000000
    5  O  1  Z    0.000000  -0.202750   0.000000   0.000000   0.040183
    6  O  1  S    0.000000   0.033172   0.000000   0.000000  -1.064886
    7  O  1  X   -0.609556   0.000000   0.000000  -0.579184   0.000000
    8  O  1  Y   -0.000000   0.000000  -0.579182  -0.000000   0.000000
    9  O  1  Z    0.000000  -0.540051   0.000000   0.000000  -0.003805
   10  O  1  S    0.000000   1.829109   0.000000   0.000000   1.857819
   11  O  1  X    1.008525   0.000000  -0.000000   1.534942   0.000000
   12  O  1  Y    0.000000   0.000000   1.534940   0.000000   0.000000
   13  O  1  Z    0.000000   2.472193   0.000000   0.000000  -0.004571
   14  O  1  S    0.000000   0.092125   0.000000   0.000000  -0.704601
   15  O  1  X   -0.453821   0.000000   0.000000  -1.096925   0.000000
   16  O  1  Y   -0.000000   0.000000  -1.096923  -0.000000   0.000000
   17  O  1  Z    0.000000  -0.523613   0.000000   0.000000  -0.247304
   18  O  1 XX    0.000000  -0.008649   0.000000   0.000000  -0.123675
   19  O  1 YY    0.000000  -0.008649   0.000000   0.000000  -0.123675
   20  O  1 ZZ    0.000000   0.020826   0.000000   0.000000  -0.228810
   21  O  1 XY    0.000000   0.000000   0.000000   0.000000   0.000000
   22  O  1 XZ   -0.023518   0.000000   0.000000  -0.017801   0.000000
   23  O  1 YZ   -0.000000   0.000000  -0.017800  -0.000000   0.000000
   24  O  2  S    0.000000   0.010554   0.000000   0.000000   0.073350
   25  O  2  S    0.000000   0.017258   0.000000   0.000000   0.094411
   26  O  2  X   -0.190802   0.000000  -0.000000   0.181070   0.000000
   27  O  2  Y   -0.000000   0.000000   0.181071   0.000000   0.000000
   28  O  2  Z    0.000000  -0.202734   0.000000   0.000000  -0.040185
   29  O  2  S    0.000000  -0.033150   0.000000   0.000000  -1.065029
   30  O  2  X   -0.609568   0.000000  -0.000000   0.579172   0.000000
   31  O  2  Y   -0.000000   0.000000   0.579174   0.000000   0.000000
   32  O  2  Z    0.000000  -0.539985   0.000000   0.000000   0.003789
   33  O  2  S    0.000000  -1.829158   0.000000   0.000000   1.858293
   34  O  2  X    1.008556   0.000000   0.000000  -1.534922   0.000000
   35  O  2  Y    0.000000   0.000000  -1.534925  -0.000000   0.000000
   36  O  2  Z    0.000000   2.472050   0.000000   0.000000   0.004428
   37  O  2  S    0.000000  -0.092089   0.000000   0.000000  -0.705141
   38  O  2  X   -0.453843   0.000000  -0.000000   1.096915   0.000000
   39  O  2  Y   -0.000000   0.000000   1.096916   0.000000   0.000000
   40  O  2  Z    0.000000  -0.523521   0.000000   0.000000   0.247453
   41  O  2 XX    0.000000   0.008648   0.000000   0.000000  -0.123693
   42  O  2 YY    0.000000   0.008648   0.000000   0.000000  -0.123693
   43  O  2 ZZ    0.000000  -0.020837   0.000000   0.000000  -0.228824
   44  O  2 XY    0.000000   0.000000   0.000000   0.000000   0.000000
   45  O  2 XZ    0.023518   0.000000   0.000000  -0.017800   0.000000
   46  O  2 YZ    0.000000   0.000000  -0.017800  -0.000000   0.000000

                     26         27         28         29         30
                    1.4190     2.2789     2.2789     2.6156     2.6156
                     A          A          A          A          A   
    1  O  1  S   -0.072905   0.000000  -0.000000  -0.000000   0.000000
    2  O  1  S   -0.094331   0.000000  -0.000000  -0.000000   0.000000
    3  O  1  X   -0.000000  -0.000000  -0.088264  -0.000000   0.000000
    4  O  1  Y   -0.000000  -0.088264   0.000000  -0.000000   0.000000
    5  O  1  Z    0.017022   0.000000  -0.000000   0.000000   0.000000
    6  O  1  S    1.251173   0.000000  -0.000000   0.000000   0.000000
    7  O  1  X   -0.000000   0.000000   0.017862  -0.000000   0.000000
    8  O  1  Y   -0.000000   0.017862  -0.000000  -0.000000   0.000000
    9  O  1  Z   -0.053573   0.000000  -0.000000   0.000000   0.000000
   10  O  1  S   -4.826399   0.000000  -0.000000   0.000000   0.000000
   11  O  1  X   -0.000000  -0.000000  -0.101689  -0.000000   0.000000
   12  O  1  Y   -0.000000  -0.101689   0.000000  -0.000000   0.000000
   13  O  1  Z   -1.700334   0.000000  -0.000000   0.000000   0.000000
   14  O  1  S   10.513413   0.000000  -0.000000   0.000000   0.000000
   15  O  1  X   -0.000000   0.000000   0.055030  -0.000000   0.000000
   16  O  1  Y   -0.000000   0.055030  -0.000000  -0.000000   0.000000
   17  O  1  Z    3.390078   0.000000  -0.000000  -0.000000   0.000000
   18  O  1 XX    0.161578   0.000000  -0.000000   0.602043  -0.000000
   19  O  1 YY    0.161578   0.000000  -0.000000  -0.602043   0.000000
   20  O  1 ZZ    0.168433   0.000000  -0.000000   0.000000   0.000000
   21  O  1 XY   -0.000000   0.000000  -0.000000   0.000000   0.695179
   22  O  1 XZ   -0.000000   0.000001   0.645826  -0.000000   0.000000
   23  O  1 YZ   -0.000000   0.645826  -0.000001  -0.000000   0.000000
   24  O  2  S    0.072896   0.000000  -0.000000   0.000000   0.000000
   25  O  2  S    0.094318   0.000000  -0.000000   0.000000   0.000000
   26  O  2  X   -0.000000  -0.000000  -0.088264  -0.000000   0.000000
   27  O  2  Y   -0.000000  -0.088264   0.000000  -0.000000   0.000000
   28  O  2  Z    0.017034   0.000000  -0.000000   0.000000   0.000000
   29  O  2  S   -1.251048   0.000000  -0.000000  -0.000000   0.000000
   30  O  2  X   -0.000000   0.000000   0.017863  -0.000000   0.000000
   31  O  2  Y   -0.000000   0.017863  -0.000000  -0.000000   0.000000
   32  O  2  Z   -0.053553   0.000000  -0.000000   0.000000   0.000000
   33  O  2  S    4.826184   0.000000  -0.000000  -0.000000   0.000000
   34  O  2  X   -0.000000  -0.000000  -0.101690  -0.000000   0.000000
   35  O  2  Y   -0.000000  -0.101690   0.000000  -0.000000   0.000000
   36  O  2  Z   -1.700388   0.000000  -0.000000   0.000000   0.000000
   37  O  2  S  -10.513319   0.000000  -0.000000  -0.000000   0.000000
   38  O  2  X   -0.000000   0.000000   0.055030  -0.000000   0.000000
   39  O  2  Y   -0.000000   0.055030  -0.000000  -0.000000   0.000000
   40  O  2  Z    3.390082   0.000000  -0.000000  -0.000000   0.000000
   41  O  2 XX   -0.161570   0.000000  -0.000000   0.602042  -0.000000
   42  O  2 YY   -0.161570   0.000000  -0.000000  -0.602042   0.000000
   43  O  2 ZZ   -0.168416   0.000000  -0.000000  -0.000000   0.000000
   44  O  2 XY   -0.000000   0.000000  -0.000000   0.000000   0.695178
   45  O  2 XZ   -0.000000  -0.000001  -0.645826  -0.000000   0.000000
   46  O  2 YZ   -0.000000  -0.645826   0.000001  -0.000000   0.000000

                     31         32         33         34         35
                    2.8902     2.8902     2.8904     3.4761     3.4761
                     A          A          A          A          A   
    1  O  1  S    0.000000  -0.000000   0.029798   0.000000  -0.000000
    2  O  1  S    0.000000  -0.000000   0.049720   0.000000  -0.000000
    3  O  1  X    0.000000   0.000000  -0.000000  -0.000000   0.073951
    4  O  1  Y    0.000000   0.000000  -0.000000   0.073951   0.000000
    5  O  1  Z    0.000000   0.000001  -0.119934   0.000000  -0.000000
    6  O  1  S    0.000000   0.000003  -0.396306   0.000000  -0.000000
    7  O  1  X    0.000000   0.000000  -0.000000   0.000000  -0.112987
    8  O  1  Y    0.000000   0.000000  -0.000000  -0.112987  -0.000000
    9  O  1  Z    0.000000   0.000002  -0.240189   0.000000  -0.000000
   10  O  1  S    0.000000  -0.000002   0.238696   0.000000  -0.000000
   11  O  1  X    0.000000   0.000000  -0.000000  -0.000000   0.379456
   12  O  1  Y    0.000000   0.000000  -0.000000   0.379456   0.000000
   13  O  1  Z    0.000000  -0.000003   0.362189   0.000000  -0.000000
   14  O  1  S    0.000000   0.000000  -0.019403   0.000000  -0.000000
   15  O  1  X    0.000000   0.000000  -0.000000   0.000000  -0.181915
   16  O  1  Y    0.000000   0.000000  -0.000000  -0.181915  -0.000000
   17  O  1  Z    0.000000   0.000001  -0.156879   0.000000  -0.000000
   18  O  1 XX   -0.000000  -0.623250  -0.342629   0.000000  -0.000000
   19  O  1 YY    0.000000   0.623255  -0.342619   0.000000  -0.000000
   20  O  1 ZZ    0.000000  -0.000005   0.635751   0.000000  -0.000000
   21  O  1 XY   -0.719670   0.000000  -0.000000   0.000000  -0.000000
   22  O  1 XZ    0.000000   0.000000  -0.000000  -0.000000   0.804654
   23  O  1 YZ    0.000000   0.000000  -0.000000   0.804654   0.000000
   24  O  2  S    0.000000  -0.000000   0.029798   0.000000  -0.000000
   25  O  2  S    0.000000  -0.000000   0.049721   0.000000  -0.000000
   26  O  2  X    0.000000   0.000000  -0.000000   0.000000  -0.073952
   27  O  2  Y    0.000000   0.000000  -0.000000  -0.073952  -0.000000
   28  O  2  Z    0.000000  -0.000001   0.119934   0.000000  -0.000000
   29  O  2  S    0.000000   0.000003  -0.396307   0.000000  -0.000000
   30  O  2  X    0.000000   0.000000  -0.000000  -0.000000   0.112988
   31  O  2  Y    0.000000   0.000000  -0.000000   0.112988   0.000000
   32  O  2  Z    0.000000  -0.000002   0.240190   0.000000  -0.000000
   33  O  2  S    0.000000  -0.000002   0.238684   0.000000  -0.000000
   34  O  2  X    0.000000   0.000000  -0.000000   0.000000  -0.379456
   35  O  2  Y    0.000000   0.000000  -0.000000  -0.379456  -0.000000
   36  O  2  Z    0.000000   0.000003  -0.362185   0.000000  -0.000000
   37  O  2  S    0.000000   0.000000  -0.019394   0.000000  -0.000000
   38  O  2  X    0.000000   0.000000  -0.000000  -0.000000   0.181915
   39  O  2  Y    0.000000   0.000000  -0.000000   0.181915   0.000000
   40  O  2  Z    0.000000  -0.000001   0.156876   0.000000  -0.000000
   41  O  2 XX    0.000000   0.623256  -0.342617   0.000000  -0.000000
   42  O  2 YY   -0.000000  -0.623251  -0.342626   0.000000  -0.000000
   43  O  2 ZZ    0.000000  -0.000005   0.635754   0.000000  -0.000000
   44  O  2 XY    0.719671  -0.000000  -0.000000   0.000000  -0.000000
   45  O  2 XZ    0.000000   0.000000  -0.000000  -0.000000   0.804655
   46  O  2 YZ    0.000000   0.000000  -0.000000   0.804655   0.000000

                     36         37         38         39         40
                    3.8585     4.7693     4.7693     4.8036     5.0168
                     A          A          A          A          A   
    1  O  1  S   -0.011143   0.000000  -0.000000  -0.011916  -0.000000
    2  O  1  S   -0.032320   0.000000  -0.000000  -0.028143  -0.000000
    3  O  1  X   -0.000000  -0.000000  -0.893563   0.000000  -0.000000
    4  O  1  Y   -0.000000  -0.893563   0.000000   0.000000  -0.904662
    5  O  1  Z    0.388196   0.000000  -0.000000   0.895734  -0.000000
    6  O  1  S   -0.114591   0.000000  -0.000000   0.058226  -0.000000
    7  O  1  X   -0.000000   0.000000   1.054169   0.000000   0.000000
    8  O  1  Y   -0.000000   1.054170  -0.000000   0.000000   1.113272
    9  O  1  Z   -0.245805   0.000000  -0.000000  -1.000463  -0.000000
   10  O  1  S    2.158334   0.000000  -0.000000  -0.043104  -0.000000
   11  O  1  X   -0.000000  -0.000000  -0.537174   0.000000  -0.000000
   12  O  1  Y   -0.000000  -0.537175   0.000000   0.000000  -0.725352
   13  O  1  Z    1.482655   0.000000  -0.000000   0.629083  -0.000000
   14  O  1  S   -2.094708   0.000000  -0.000000   0.074504  -0.000000
   15  O  1  X   -0.000000   0.000000   0.178481   0.000000   0.000000
   16  O  1  Y   -0.000000   0.178481  -0.000000   0.000000   0.392638
   17  O  1  Z   -0.850980   0.000000  -0.000000  -0.303068  -0.000000
   18  O  1 XX   -0.479369   0.000000  -0.000000  -0.122911  -0.000000
   19  O  1 YY   -0.479369   0.000000  -0.000000  -0.122911  -0.000000
   20  O  1 ZZ    0.753739   0.000000  -0.000000   0.110951  -0.000000
   21  O  1 XY   -0.000000   0.000000  -0.000000   0.000000  -0.000000
   22  O  1 XZ   -0.000000  -0.000000  -0.077904   0.000000   0.000000
   23  O  1 YZ   -0.000000  -0.077904   0.000000   0.000000   0.098446
   24  O  2  S    0.011143   0.000000  -0.000000  -0.011914  -0.000000
   25  O  2  S    0.032319   0.000000  -0.000000  -0.028138  -0.000000
   26  O  2  X   -0.000000  -0.000000  -0.893571   0.000000   0.000000
   27  O  2  Y   -0.000000  -0.893570   0.000000   0.000000   0.904655
   28  O  2  Z    0.388194   0.000000  -0.000000  -0.895743  -0.000000
   29  O  2  S    0.114591   0.000000  -0.000000   0.058209  -0.000000
   30  O  2  X   -0.000000   0.000000   1.054178   0.000000  -0.000000
   31  O  2  Y   -0.000000   1.054177  -0.000000   0.000000  -1.113264
   32  O  2  Z   -0.245803   0.000000  -0.000000   1.000475  -0.000000
   33  O  2  S   -2.158326   0.000000  -0.000000  -0.043101  -0.000000
   34  O  2  X   -0.000000  -0.000000  -0.537180   0.000000   0.000000
   35  O  2  Y   -0.000000  -0.537179   0.000000   0.000000   0.725347
   36  O  2  Z    1.482655   0.000000  -0.000000  -0.629089  -0.000000
   37  O  2  S    2.094704   0.000000  -0.000000   0.074429  -0.000000
   38  O  2  X   -0.000000   0.000000   0.178484   0.000000  -0.000000
   39  O  2  Y   -0.000000   0.178484  -0.000000   0.000000  -0.392636
   40  O  2  Z   -0.850980   0.000000  -0.000000   0.303096  -0.000000
   41  O  2 XX    0.479367   0.000000  -0.000000  -0.122902  -0.000000
   42  O  2 YY    0.479367   0.000000  -0.000000  -0.122902  -0.000000
   43  O  2 ZZ   -0.753740   0.000000  -0.000000   0.110956  -0.000000
   44  O  2 XY   -0.000000   0.000000  -0.000000   0.000000  -0.000000
   45  O  2 XZ   -0.000000   0.000000   0.077903   0.000000   0.000000
   46  O  2 YZ   -0.000000   0.077903  -0.000000   0.000000   0.098447

                     41         42         43         44         45
                    5.0168     5.6833     5.8738     7.0962    54.9781
                     A          A          A          A          A   
    1  O  1  S   -0.000000  -0.093074  -0.136515   0.094960  -1.638818
    2  O  1  S   -0.000000  -0.322238  -0.479180   0.369768   1.909251
    3  O  1  X   -0.904662  -0.000000  -0.000000   0.000000   0.000000
    4  O  1  Y    0.000000  -0.000000  -0.000000   0.000000   0.000000
    5  O  1  Z   -0.000000  -0.645046  -0.055734  -0.623794   0.000069
    6  O  1  S   -0.000000   1.050246   1.752665  -1.443840  -0.761907
    7  O  1  X    1.113273  -0.000000  -0.000000   0.000000   0.000000
    8  O  1  Y   -0.000000  -0.000000  -0.000000   0.000000   0.000000
    9  O  1  Z   -0.000000   1.020802   0.064086   1.221941  -0.002819
   10  O  1  S   -0.000000   1.823203   0.948556  -1.015341  -0.240330
   11  O  1  X   -0.725352  -0.000000  -0.000000   0.000000   0.000000
   12  O  1  Y    0.000000  -0.000000  -0.000000   0.000000   0.000000
   13  O  1  Z   -0.000000   0.149618   0.013182  -0.506720  -0.009833
   14  O  1  S   -0.000000  -3.728682  -0.276770   1.720861   0.071559
   15  O  1  X    0.392638  -0.000000  -0.000000   0.000000   0.000000
   16  O  1  Y   -0.000000  -0.000000  -0.000000   0.000000   0.000000
   17  O  1  Z   -0.000000  -1.085892  -0.086057   0.589646   0.027006
   18  O  1 XX   -0.000000  -0.899372  -1.118341   0.668136   0.386890
   19  O  1 YY   -0.000000  -0.899372  -1.118341   0.668136   0.386890
   20  O  1 ZZ   -0.000000  -0.296849  -0.967711   1.578871   0.359010
   21  O  1 XY   -0.000000  -0.000000  -0.000000   0.000000   0.000000
   22  O  1 XZ    0.098446  -0.000000  -0.000000   0.000000   0.000000
   23  O  1 YZ   -0.000000  -0.000000  -0.000000   0.000000   0.000000
   24  O  2  S   -0.000000   0.093095  -0.136501  -0.094957  -1.638869
   25  O  2  S   -0.000000   0.322314  -0.479136  -0.369761   1.909311
   26  O  2  X    0.904655  -0.000000  -0.000000   0.000000   0.000000
   27  O  2  Y   -0.000000  -0.000000  -0.000000   0.000000   0.000000
   28  O  2  Z   -0.000000  -0.645045   0.055623  -0.623795  -0.000068
   29  O  2  S   -0.000000  -1.050521   1.752529   1.443811  -0.761932
   30  O  2  X   -1.113263  -0.000000  -0.000000   0.000000   0.000000
   31  O  2  Y    0.000000  -0.000000  -0.000000   0.000000   0.000000
   32  O  2  Z   -0.000000   1.020798  -0.063903   1.221943   0.002816
   33  O  2  S   -0.000000  -1.823350   0.948244   1.015327  -0.240347
   34  O  2  X    0.725347  -0.000000  -0.000000   0.000000   0.000000
   35  O  2  Y   -0.000000  -0.000000  -0.000000   0.000000   0.000000
   36  O  2  Z   -0.000000   0.149632  -0.013171  -0.506722   0.009838
   37  O  2  S   -0.000000   3.728722  -0.275677  -1.720857   0.071585
   38  O  2  X   -0.392636  -0.000000  -0.000000   0.000000   0.000000
   39  O  2  Y    0.000000  -0.000000  -0.000000   0.000000   0.000000
   40  O  2  Z   -0.000000  -1.085910   0.085715   0.589645  -0.027014
   41  O  2 XX   -0.000000   0.899550  -1.118210  -0.668119   0.386903
   42  O  2 YY   -0.000000   0.899550  -1.118210  -0.668119   0.386903
   43  O  2 ZZ   -0.000000   0.296999  -0.967687  -1.578856   0.359025
   44  O  2 XY   -0.000000  -0.000000  -0.000000   0.000000   0.000000
   45  O  2 XZ    0.098447  -0.000000  -0.000000   0.000000   0.000000
   46  O  2 YZ   -0.000000  -0.000000  -0.000000   0.000000   0.000000

                     46
                   55.3471
                     A   
    1  O  1  S   -1.644225
    2  O  1  S    1.930072
    3  O  1  X    0.000000
    4  O  1  Y    0.000000
    5  O  1  Z   -0.033892
    6  O  1  S   -0.806447
    7  O  1  X    0.000000
    8  O  1  Y    0.000000
    9  O  1  Z    0.097675
   10  O  1  S   -0.552939
   11  O  1  X    0.000000
   12  O  1  Y    0.000000
   13  O  1  Z   -0.156294
   14  O  1  S    1.070135
   15  O  1  X    0.000000
   16  O  1  Y    0.000000
   17  O  1  Z    0.336859
   18  O  1 XX    0.408613
   19  O  1 YY    0.408613
   20  O  1 ZZ    0.488913
   21  O  1 XY    0.000000
   22  O  1 XZ    0.000000
   23  O  1 YZ    0.000000
   24  O  2  S    1.644173
   25  O  2  S   -1.930013
   26  O  2  X    0.000000
   27  O  2  Y    0.000000
   28  O  2  Z   -0.033892
   29  O  2  S    0.806422
   30  O  2  X    0.000000
   31  O  2  Y    0.000000
   32  O  2  Z    0.097676
   33  O  2  S    0.552931
   34  O  2  X    0.000000
   35  O  2  Y    0.000000
   36  O  2  Z   -0.156294
   37  O  2  S   -1.070132
   38  O  2  X    0.000000
   39  O  2  Y    0.000000
   40  O  2  Z    0.336858
   41  O  2 XX   -0.408600
   42  O  2 YY   -0.408600
   43  O  2 ZZ   -0.488901
   44  O  2 XY    0.000000
   45  O  2 XZ    0.000000
   46  O  2 YZ    0.000000
 ...... END OF UHF CALCULATION ......
 STEP CPU TIME =     1.55 TOTAL CPU TIME =          1.6 (      0.0 MIN)
 TOTAL WALL CLOCK TIME=          1.6 SECONDS, CPU UTILIZATION IS    98.76%

     ---------------------------------------------------------------------
     PROPERTIES FOR THE B3LYP    DFT FUNCTIONAL (UHF  TYPE) DENSITY MATRIX
     ---------------------------------------------------------------------

          -----------------
          ENERGY COMPONENTS
          -----------------

         WAVEFUNCTION NORMALIZATION =       1.0000000000

                ONE ELECTRON ENERGY =    -261.7561174424
                TWO ELECTRON ENERGY =      83.3964301540
           NUCLEAR REPULSION ENERGY =      28.0474898148
                                      ------------------
                       TOTAL ENERGY =    -150.3121974736

 ELECTRON-ELECTRON POTENTIAL ENERGY =      83.3964301540
  NUCLEUS-ELECTRON POTENTIAL ENERGY =    -411.6082001435
   NUCLEUS-NUCLEUS POTENTIAL ENERGY =      28.0474898148
                                      ------------------
             TOTAL POTENTIAL ENERGY =    -300.1642801748
               TOTAL KINETIC ENERGY =     149.8520827012
                 VIRIAL RATIO (V/T) =       2.0030704596

          ---------------------------------------
          MULLIKEN AND LOWDIN POPULATION ANALYSES
          ---------------------------------------

     ATOMIC MULLIKEN POPULATION IN EACH MOLECULAR ORBITAL
        ALPHA ORBITALS

                      1          2          3          4          5

                  1.000000   1.000000   1.000000   1.000000   1.000000

    1             0.504783   0.495218   0.499921   0.500000   0.500000
    2             0.495217   0.504782   0.500079   0.500000   0.500000

                      6          7          8          9

                  1.000000   1.000000   1.000000   1.000000

    1             0.500000   0.500018   0.500000   0.500000
    2             0.500000   0.499982   0.500000   0.500000

     ATOMIC MULLIKEN POPULATION IN EACH MOLECULAR ORBITAL
         BETA ORBITALS

                      1          2          3          4          5

                  1.000000   1.000000   1.000000   1.000000   1.000000

    1             0.502826   0.497175   0.499917   0.500000   0.500028
    2             0.497174   0.502825   0.500083   0.500000   0.499972

                      6          7

                  1.000000   1.000000

    1             0.500000   0.500000
    2             0.500000   0.500000

     ATOMIC SPIN POPULATION (ALPHA MINUS BETA)
       ATOM         MULL.POP.                    LOW.POP.
    1 O             0.999993                     0.999999
    2 O             1.000007                     1.000001


          ********* ALL ELECTRONS ********

               ----- POPULATIONS IN EACH AO -----
                             MULLIKEN      LOWDIN
              1  O  1  S      1.08496     1.03297
              2  O  1  S      0.90237     0.93041
              3  O  1  X      0.33369     0.34013
              4  O  1  Y      0.33369     0.34013
              5  O  1  Z      0.26268     0.26195
              6  O  1  S      1.09564     0.61458
              7  O  1  X      0.67027     0.65243
              8  O  1  Y      0.67027     0.65243
              9  O  1  Z      0.58921     0.56881
             10  O  1  S      0.87127     0.42618
             11  O  1  X      0.46723     0.42812
             12  O  1  Y      0.46723     0.42812
             13  O  1  Z      0.18700     0.33077
             14  O  1  S     -0.03940     0.13680
             15  O  1  X      0.02150     0.06852
             16  O  1  Y      0.02150     0.06852
             17  O  1  Z      0.04873     0.06539
             18  O  1 XX     -0.00849     0.20568
             19  O  1 YY     -0.00849     0.20568
             20  O  1 ZZ      0.01440     0.22079
             21  O  1 XY      0.00000     0.00000
             22  O  1 XZ      0.00731     0.01081
             23  O  1 YZ      0.00731     0.01081
             24  O  2  S      1.08496     1.03297
             25  O  2  S      0.90237     0.93041
             26  O  2  X      0.33369     0.34013
             27  O  2  Y      0.33369     0.34013
             28  O  2  Z      0.26268     0.26195
             29  O  2  S      1.09565     0.61459
             30  O  2  X      0.67027     0.65243
             31  O  2  Y      0.67027     0.65243
             32  O  2  Z      0.58921     0.56881
             33  O  2  S      0.87125     0.42618
             34  O  2  X      0.46723     0.42812
             35  O  2  Y      0.46723     0.42812
             36  O  2  Z      0.18700     0.33077
             37  O  2  S     -0.03921     0.13680
             38  O  2  X      0.02151     0.06852
             39  O  2  Y      0.02151     0.06852
             40  O  2  Z      0.04878     0.06539
             41  O  2 XX     -0.00849     0.20568
             42  O  2 YY     -0.00849     0.20568
             43  O  2 ZZ      0.01440     0.22079
             44  O  2 XY      0.00000     0.00000
             45  O  2 XZ      0.00731     0.01081
             46  O  2 YZ      0.00731     0.01081

          ----- MULLIKEN ATOMIC OVERLAP POPULATIONS -----
          (OFF-DIAGONAL ELEMENTS NEED TO BE MULTIPLIED BY 2)

             1           2

    1    7.7494772
    2    0.2504083   7.7497061

          TOTAL MULLIKEN AND LOWDIN ATOMIC POPULATIONS
       ATOM         MULL.POP.    CHARGE          LOW.POP.     CHARGE
    1 O             7.999886    0.000114         7.999996    0.000004
    2 O             8.000114   -0.000114         8.000004   -0.000004

          -------------------------------
          BOND ORDER AND VALENCE ANALYSIS     BOND ORDER THRESHOLD=0.050
          -------------------------------

                   BOND                       BOND                       BOND
  ATOM PAIR DIST  ORDER      ATOM PAIR DIST  ORDER      ATOM PAIR DIST  ORDER
    1   2  1.208  2.093

                       TOTAL       BONDED        FREE
      ATOM            VALENCE     VALENCE     VALENCE
    1 O                 2.625       2.093       0.532
    2 O                 2.625       2.093       0.532

          -----------------------------------------
          ATOMIC SPIN DENSITY AT THE NUCLEUS (A.U.)
          -----------------------------------------
                            SPIN DENS    ALPHA DENS     BETA DENS
    1  O            8.0     0.0848115     148.15803     148.07322
    2  O            8.0     0.0848148     148.15807     148.07325

          ---------------------
          ELECTROSTATIC MOMENTS
          ---------------------

 POINT   1           X           Y           Z (BOHR)    CHARGE
                 0.000000    0.000000    0.000000        0.00 (A.U.)
         DX          DY          DZ         /D/  (DEBYE)
     0.000000    0.000000    0.000001    0.000001
 ...... END OF PROPERTY EVALUATION ......
 STEP CPU TIME =     0.01 TOTAL CPU TIME =          1.6 (      0.0 MIN)
 TOTAL WALL CLOCK TIME=          1.6 SECONDS, CPU UTILIZATION IS    99.38%
               580000  WORDS OF DYNAMIC MEMORY USED
 EXECUTION OF GAMESS TERMINATED NORMALLY Fri Dec 13 16:09:17 2019
 DDI: 263640 bytes (0.3 MB / 0 MWords) used by master data server.

 ----------------------------------------
 CPU timing information for all processes
 ========================================
 0: 1.600 + 0.08 = 1.608
 ----------------------------------------
 ddikick.x: exited gracefully.
----- accounting info -----
Files used on the master node amlan-PT-3420 were:
-rw-rw-r-- 1 akroy akroy   71201 Dec 13 16:09 /tmp/o2_b3lyp.dat
-rw-rw-r-- 1 akroy akroy     304 Dec 13 16:09 /tmp/o2_b3lyp.F05
-rw-rw-r-- 1 akroy akroy 1980176 Dec 13 16:09 /tmp/o2_b3lyp.F08
-rw-rw-r-- 1 akroy akroy 1930480 Dec 13 16:09 /tmp/o2_b3lyp.F10
Fri Dec 13 16:09:20 IST 2019
0.0u 0.0s 0:04.77 1.2% 0+0k 0+24io 0pf+0w
