----- GAMESS execution script 'rungms' -----
This job is running on host amlan-PT-3420
under operating system Linux at Thu Jun 13 22:30:58 IST 2019
Available scratch disk space (Kbyte units) at beginning of the job is
Filesystem      1K-blocks     Used  Available Use% Mounted on
/dev/sda3      1916812448 56944516 1762476420   4% /
GAMESS temporary binary files will be written to /tmp
GAMESS supplementary output files will be written to /tmp
Copying input file li_atom_6_311g3df3pd_all.inp to your run's scratch directory...

 Distributed Data Interface kickoff program.
 Initiating 1 compute processes on 1 nodes to run the following command:
 /home/akroy/gamess/gamess.01.x li_atom_6_311g3df3pd_all 

          ******************************************************
          *         GAMESS VERSION = 30 SEP 2018 (R3)         *
          *             FROM IOWA STATE UNIVERSITY             *
          * M.W.SCHMIDT, K.K.BALDRIDGE, J.A.BOATZ, S.T.ELBERT, *
          *   M.S.GORDON, J.H.JENSEN, S.KOSEKI, N.MATSUNAGA,   *
          *          K.A.NGUYEN, S.J.SU, T.L.WINDUS,           *
          *       TOGETHER WITH M.DUPUIS, J.A.MONTGOMERY       *
          *         J.COMPUT.CHEM.  14, 1347-1363(1993)        *
          **************** 64 BIT LINUX VERSION ****************

  SINCE 1993, STUDENTS AND POSTDOCS WORKING AT IOWA STATE UNIVERSITY
  AND ALSO IN THEIR VARIOUS JOBS AFTER LEAVING ISU HAVE MADE IMPORTANT
  CONTRIBUTIONS TO THE CODE:
     IVANA ADAMOVIC, CHRISTINE AIKENS, YURI ALEXEEV, POOJA ARORA,
     ANDREY ASADCHEV, ROB BELL, PRADIPTA BANDYOPADHYAY, JONATHAN BENTZ,
     BRETT BODE, KURT BRORSEN, CALEB CARLIN, GALINA CHABAN, WEI CHEN,
     CHEOL HO CHOI, PAUL DAY, ALBERT DEFUSCO, NUWAN DESILVA, TIM DUDLEY,
     DMITRI FEDOROV, ALEX FINDLATER, GRAHAM FLETCHER, MARK FREITAG,
     KURT GLAESEMANN, ANASTASIA GUNINA,
     DAN KEMP, GRANT MERRILL, NORIYUKI MINEZAWA, JONATHAN MULLIN,
     TAKESHI NAGATA, SEAN NEDD, HEATHER NETZLOFF, BOSILJKA NJEGIC, RYAN OLSON,
     MIKE PAK, BUU PHAM,
     SPENCER PRUITT, LUKE ROSKOP, JIM SHOEMAKER, LYUDMILA SLIPCHENKO,
     TONY SMITH, SAROM SOK LEANG, JIE SONG, TETSUYA TAKETSUGU, SIMON WEBB,
     PENG XU, SOOHAENG YOO, FEDERICO ZAHARIEV

  ADDITIONAL CODE HAS BEEN PROVIDED BY COLLABORATORS IN OTHER GROUPS:
     IOWA STATE UNIVERSITY:
          JOE IVANIC, AARON WEST, LAIMUTIS BYTAUTAS, KLAUS RUEDENBERG
     UNIVERSITY OF TOKYO: KIMIHIKO HIRAO, TAKAHITO NAKAJIMA,
          TAKAO TSUNEDA, MUNEAKI KAMIYA, SUSUMU YANAGISAWA,
          KIYOSHI YAGI, MAHITO CHIBA, SEIKEN TOKURA, NAOAKI KAWAKAMI
     UNIVERSITY OF AARHUS: FRANK JENSEN
     UNIVERSITY OF IOWA: VISVALDAS KAIRYS, HUI LI
     NATIONAL INST. OF STANDARDS AND TECHNOLOGY: WALT STEVENS, DAVID GARMER
     UNIVERSITY OF PISA: BENEDETTA MENNUCCI, JACOPO TOMASI
     UNIVERSITY OF MEMPHIS: HENRY KURTZ, PRAKASHAN KORAMBATH
     UNIVERSITY OF ALBERTA: TOBY ZENG, MARIUSZ KLOBUKOWSKI
     UNIVERSITY OF NEW ENGLAND: MARK SPACKMAN
     MIE UNIVERSITY: HIROAKI UMEDA
     NAT. INST. OF ADVANCED INDUSTRIAL SCIENCE AND TECHNOLOGY: KAZUO KITAURA
     MICHIGAN STATE UNIVERSITY:
          KAROL KOWALSKI, MARTA WLOCH, JEFFREY GOUR, JESSE LUTZ,
          WEI LI, JUN SHEN, J. EMILIANO DEUSTUA, PIOTR PIECUCH
     UNIVERSITY OF MINNESOTA:
          YINAN SHU
     UNIVERSITY OF SILESIA: MONIKA MUSIAL, STANISLAW KUCHARSKI
     FACULTES UNIVERSITAIRES NOTRE-DAME DE LA PAIX:
          OLIVIER QUINET, BENOIT CHAMPAGNE
     UNIVERSITY OF CALIFORNIA - SANTA BARBARA: BERNARD KIRTMAN
     INSTITUTE FOR MOLECULAR SCIENCE:
          KAZUYA ISHIMURA, MICHIO KATOUDA, AND SHIGERU NAGASE
     UNIVERSITY OF NOTRE DAME: ANNA POMOGAEVA, DAN CHIPMAN
     KYUSHU UNIVERSITY:
          HARUYUKI NAKANO,
          FENG LONG GU, JACEK KORCHOWIEC, MARCIN MAKOWSKI, AND YURIKO AOKI,
          HIROTOSHI MORI AND EISAKU MIYOSHI
     PENNSYLVANIA STATE UNIVERSITY:
          TZVETELIN IORDANOV, CHET SWALINA, JONATHAN SKONE,
          SHARON HAMMES-SCHIFFER
     WASEDA UNIVERSITY:
          MASATO KOBAYASHI, TOMOKO AKAMA, TSUGUKI TOUMA,
          TAKESHI YOSHIKAWA, YASUHIRO IKABATA, JUNJI SEINO,
          YUYA NAKAJIMA, HIROMI NAKAI
     NANJING UNIVERSITY: SHUHUA LI
     UNIVERSITY OF NEBRASKA:
          PEIFENG SU, DEJUN SI, NANDUN THELLAMUREGE, YALI WANG, HUI LI
     UNIVERSITY OF ZURICH: ROBERTO PEVERATI, KIM BALDRIDGE
     N. COPERNICUS UNIVERSITY AND JACKSON STATE UNIVERSITY:
          MARIA BARYSZ
     UNIVERSITY OF COPENHAGEN: Jimmy Kromann, CASPER STEINMANN
     TOKYO INSTITUTE OF TECHNOLOGY: HIROYA NAKATA
     NAGOYA UNIVERSITY: YOSHIO NISHIMOTO, STEPHAN IRLE
     MOSCOW STATE UNIVERSITY: VLADIMIR MIRONOV

 EXECUTION OF GAMESS BEGUN Thu Jun 13 22:30:58 2019

            ECHO OF THE FIRST FEW INPUT CARDS -
 INPUT CARD> $CONTRL SCFTYP=UHF COORD=CART MULT=2  RUNTYP=ENERGY $END                       
 INPUT CARD> $SYSTEM TIMLIM=2000 $END                                                       
 INPUT CARD> $DFT METHOD=GRID DFTTYP=NONE $END                                              
 INPUT CARD> $BASIS EXTFIL=.TRUE. GBASIS=6311G3DF $END                                      
 INPUT CARD> $GUESS GUESS=HUCKEL $END                                                       
 INPUT CARD> $DATA                                                                          
 INPUT CARD>LI                                                                              
 INPUT CARD>C1                                                                              
 INPUT CARD>LI   3.0   0.0000   0.0000   0.0000                                             
 INPUT CARD> $END                                                                           
 INPUT CARD>                                                                                
 INPUT CARD>                                                                                
 INPUT CARD>                                                                                
 INPUT CARD>                                                                                
 INPUT CARD>                                                                                
 INPUT CARD>                                                                                
 INPUT CARD>                                                                                
 INPUT CARD>                                                                                
 INPUT CARD>                                                                                
 INPUT CARD>                                                                                
    1000000 WORDS OF MEMORY AVAILABLE


                    * * * WARNING * * *
 OLD KEYWORD COORD=CART SELECTED, AUTOMATICALLY CHANGED TO COORD=PRINAXIS.
 YOUR MOLECULE'S COORDINATES WILL BE CHANGED TO PRINCIPAL AXES BY
   A) TRANSLATION TO THE CENTER OF MASS, THEN
   B) ROTATION TO HAVE A DIAGONAL MOMENT OF INERTIA TENSOR.

 HOWEVER, NOTHING ELSE IN YOUR INPUT WILL BE ROTATED IN THE SAME WAY,
 SO IF YOU HAVE A $VEC, $VIB, $GRAD, $HESS, EFP PARTICLE COORDINATES,
 OR ANYTHING ELSE THAT DEPENDS ON THE INITIAL ORIENTATION, THAT DATA
 WILL NOT BE USED CORRECTLY IN THIS RUN.

 THE PURPOSE OF COORD=PRINAXIS IS TO BE USED ONCE, ONLY AT THE VERY
 BEGINNING OF A SERIES OF COMPUTATIONS, PERHAPS TO FIND THE SYMMETRY
 UNIQUE ATOMS FROM AN ARBITRARY INITIAL ORIENTATION.

 AFTER THE FIRST RUN, YOU SHOULD USE ONLY COORD=UNIQUE, TO ENSURE THAT
 THE COORDINATES WHICH YOU READ IN ARE THE COORDINATES THAT ARE USED.


     $BASIS REQUESTS READING THE "6311G3DF" BASIS SET FROM AN EXTERNAL FILE


     RUN TITLE
     ---------
 LI                                                                              

 THE POINT GROUP OF THE MOLECULE IS C1      
 THE ORDER OF THE PRINCIPAL AXIS IS     0

 THE MOMENTS OF INERTIA ARE (AMU-ANGSTROM**2)
 IXX=     0.000   IYY=     0.000   IZZ=     0.000

 THE EXTERNAL BASIS SET FILE BEING READ IS
     "/home/akroy/gamess/EXTFILE.txt"

 ATOM      ATOMIC                      COORDINATES (BOHR)
           CHARGE         X                   Y                   Z
 LI          3.0     0.0000000000        0.0000000000        0.0000000000

          INTERNUCLEAR DISTANCES (ANGS.)
          ------------------------------

                1 LI    

   1 LI      0.0000000  

  * ... LESS THAN  3.000


     ATOMIC BASIS SET
     ----------------
 THE CONTRACTED PRIMITIVE FUNCTIONS HAVE BEEN UNNORMALIZED
 THE CONTRACTED BASIS FUNCTIONS ARE NOW NORMALIZED TO UNITY

  SHELL TYPE  PRIMITIVE        EXPONENT          CONTRACTION COEFFICIENT(S)

 LI        

      1   S       1           900.4600000    0.002287040374
      1   S       2           134.4330000    0.017635002886
      1   S       3            30.4365000    0.087343414295
      1   S       4             8.6263900    0.280977045987
      1   S       5             2.4833200    0.658741107814
      1   S       6             0.3031790    0.118712019429

      2   L       7             4.8689000    0.093329299515    0.032766096583
      2   L       8             0.8569240    0.943044995097    0.159791983337
      2   L       9             0.2432270   -0.002798269985    0.885666907644

      3   L      10             0.0635070    1.000000000000    1.000000000000

      4   L      11             0.0243683    1.000000000000    1.000000000000

      5   L      12             0.0074000    1.000000000000    1.000000000000

      6   D      13             0.8000000    1.000000000000

      7   D      14             0.2000000    1.000000000000

      8   D      15             0.0500000    1.000000000000

      9   F      16             0.1500000    1.000000000000

 TOTAL NUMBER OF BASIS SET SHELLS             =    9
 NUMBER OF CARTESIAN GAUSSIAN BASIS FUNCTIONS =   45
 NUMBER OF ELECTRONS                          =    3
 CHARGE OF MOLECULE                           =    0
 SPIN MULTIPLICITY                            =    2
 NUMBER OF OCCUPIED ORBITALS (ALPHA)          =    2
 NUMBER OF OCCUPIED ORBITALS (BETA )          =    1
 TOTAL NUMBER OF ATOMS                        =    1
 THE NUCLEAR REPULSION ENERGY IS        0.0000000000

 THIS MOLECULE IS RECOGNIZED AS BEING LINEAR,
 ORBITAL LZ DEGENERACY TOLERANCE ETOLLZ= 1.00E-06

     $CONTRL OPTIONS
     ---------------
 SCFTYP=UHF          RUNTYP=ENERGY       EXETYP=RUN     
 MPLEVL=       0     CITYP =NONE         CCTYP =NONE         VBTYP =NONE    
 DFTTYP=NONE         TDDFT =NONE    
 MULT  =       2     ICHARG=       0     NZVAR =       0     COORD =PRINAXIS
 PP    =NONE         RELWFN=NONE         LOCAL =NONE         NUMGRD=       F
 ISPHER=      -1     NOSYM =       0     MAXIT =      30     UNITS =ANGS    
 PLTORB=       F     MOLPLT=       F     AIMPAC=       F     FRIEND=        
 NPRINT=       7     IREST =       0     GEOM  =INPUT   
 NORMF =       0     NORMP =       0     ITOL  =      20     ICUT  =       9
 INTTYP=BEST         GRDTYP=BEST         QMTTOL= 1.0E-06

     $SYSTEM OPTIONS
     ---------------
  REPLICATED MEMORY=     1000000 WORDS (ON EVERY NODE).
 DISTRIBUTED MEMDDI=           0 MILLION WORDS IN AGGREGATE,
 MEMDDI DISTRIBUTED OVER   1 PROCESSORS IS           0 WORDS/PROCESSOR.
 TOTAL MEMORY REQUESTED ON EACH PROCESSOR=     1000000 WORDS.
 TIMLIM=        2000.00 MINUTES, OR       1.4 DAYS.
 PARALL= F  BALTYP=  DLB     KDIAG=    0  COREFL= F
 MXSEQ2=     300 MXSEQ3=     150  mem10=         0

          ----------------
          PROPERTIES INPUT
          ----------------

     MOMENTS            FIELD           POTENTIAL          DENSITY
 IEMOM =       1   IEFLD =       0   IEPOT =       0   IEDEN =       0
 WHERE =COMASS     WHERE =NUCLEI     WHERE =NUCLEI     WHERE =NUCLEI  
 OUTPUT=BOTH       OUTPUT=BOTH       OUTPUT=BOTH       OUTPUT=BOTH    
 IEMINT=       0   IEFINT=       0                     IEDINT=       0
                                                       MORB  =       0
          EXTRAPOLATION IN EFFECT
          SOSCF IN EFFECT
          DIIS or SOSCF will be reset if energy rises
 ORBITAL PRINTING OPTION: NPREO=     1    45     2     1

     -------------------------------
     INTEGRAL TRANSFORMATION OPTIONS
     -------------------------------
     NWORD  =            0
     CUTOFF = 1.0E-09     MPTRAN =       0
     DIRTRF =       F     AOINTS =DUP     

          ----------------------
          INTEGRAL INPUT OPTIONS
          ----------------------
 NOPK  =       1 NORDER=       0 SCHWRZ=       F

     ------------------------------------------
     THE POINT GROUP IS C1 , NAXIS= 0, ORDER= 1
     ------------------------------------------

     DIMENSIONS OF THE SYMMETRY SUBSPACES ARE
 A   =   45

 ..... DONE SETTING UP THE RUN .....
 STEP CPU TIME =     0.01 TOTAL CPU TIME =          0.0 (      0.0 MIN)
 TOTAL WALL CLOCK TIME=          0.0 SECONDS, CPU UTILIZATION IS    33.33%

          ********************
          1 ELECTRON INTEGRALS
          ********************
 ...... END OF ONE-ELECTRON INTEGRALS ......
 STEP CPU TIME =     0.00 TOTAL CPU TIME =          0.0 (      0.0 MIN)
 TOTAL WALL CLOCK TIME=          0.0 SECONDS, CPU UTILIZATION IS    33.33%

          -------------
          GUESS OPTIONS
          -------------
          GUESS =HUCKEL            NORB  =       0          NORDER=       0
          MIX   =       F          PRTMO =       F          PUNMO =       F
          TOLZ  = 1.0E-08          TOLE  = 1.0E-05
          SYMDEN=       F          PURIFY=       F

 INITIAL GUESS ORBITALS GENERATED BY HUCKEL   ROUTINE.
 HUCKEL GUESS REQUIRES     15564 WORDS.

 SYMMETRIES FOR INITIAL GUESS ORBITALS FOLLOW.  ALPHA SET(S).
     2 ORBITALS ARE OCCUPIED (    1 CORE ORBITALS).
     2=A        3=A        4=A        5=A        6=A        7=A        8=A   
     9=A       10=A       11=A       12=A   

 SYMMETRIES FOR INITIAL GUESS ORBITALS FOLLOW.   BETA SET(S).
     1 ORBITALS ARE OCCUPIED (    1 CORE ORBITALS).
     2=A        3=A        4=A        5=A        6=A        7=A        8=A   
     9=A       10=A       11=A   
 ...... END OF INITIAL ORBITAL SELECTION ......
 STEP CPU TIME =     0.01 TOTAL CPU TIME =          0.0 (      0.0 MIN)
 TOTAL WALL CLOCK TIME=          0.0 SECONDS, CPU UTILIZATION IS    66.67%

                    ----------------------
                    AO INTEGRAL TECHNOLOGY
                    ----------------------
     S,P,L SHELL ROTATED AXIS INTEGRALS, REPROGRAMMED BY
        KAZUYA ISHIMURA (IMS) AND JOSE SIERRA (SYNSTAR).
     S,P,D,L SHELL ROTATED AXIS INTEGRALS PROGRAMMED BY
        KAZUYA ISHIMURA (INSTITUTE FOR MOLECULAR SCIENCE).
     S,P,D,F,G SHELL TO TOTAL QUARTET ANGULAR MOMENTUM SUM 5,
        ERIC PROGRAM BY GRAHAM FLETCHER (ELORET AND NASA ADVANCED
        SUPERCOMPUTING DIVISION, AMES RESEARCH CENTER).
     S,P,D,F,G,L SHELL GENERAL RYS QUADRATURE PROGRAMMED BY
        MICHEL DUPUIS (PACIFIC NORTHWEST NATIONAL LABORATORY).

          --------------------
          2 ELECTRON INTEGRALS
          --------------------

 THE -PK- OPTION IS OFF, THE INTEGRALS ARE NOT IN SUPERMATRIX FORM.
 STORING   15000 INTEGRALS/RECORD ON DISK, USING 12 BYTES/INTEGRAL.
 TWO ELECTRON INTEGRAL EVALUATION REQUIRES   99145 WORDS OF MEMORY.
 II,JST,KST,LST =  1  1  1  1 NREC =         1 INTLOC =    1
 II,JST,KST,LST =  2  1  1  1 NREC =         1 INTLOC =    2
 II,JST,KST,LST =  3  1  1  1 NREC =         1 INTLOC =   34
 II,JST,KST,LST =  4  1  1  1 NREC =         1 INTLOC =  214
 II,JST,KST,LST =  5  1  1  1 NREC =         1 INTLOC =  776
 II,JST,KST,LST =  6  1  1  1 NREC =         1 INTLOC = 2074
 II,JST,KST,LST =  7  1  1  1 NREC =         1 INTLOC = 5929
 II,JST,KST,LST =  8  1  1  1 NREC =         1 INTLOC =14065
 II,JST,KST,LST =  9  1  1  1 NREC =         2 INTLOC =14002
 TOTAL NUMBER OF NONZERO TWO-ELECTRON INTEGRALS =               72961
          5 INTEGRAL RECORDS WERE STORED ON DISK FILE  8.
  ...... END OF TWO-ELECTRON INTEGRALS .....
 STEP CPU TIME =     0.02 TOTAL CPU TIME =          0.0 (      0.0 MIN)
 TOTAL WALL CLOCK TIME=          0.1 SECONDS, CPU UTILIZATION IS    80.00%

          ---------------------------
                  UHF SCF CALCULATION
          ---------------------------

     NUCLEAR ENERGY =         0.0000000000
     MAXIT = 30     NPUNCH=  2     MULT=  2
     EXTRAP=T  DAMP=F  SHIFT=F  RSTRCT=F  DIIS=F  SOSCF=T
     DENSITY MATRIX CONV=  1.00E-05
     SOSCF WILL OPTIMIZE      86 ALPHA AND      44 BETA ROTATION ANGLES.
     SOGTOL= 2.500E-01
     MEMORY REQUIRED FOR UHF/ROHF ITERS=     51880 WORDS.

 ITER EX      TOTAL ENERGY        E CHANGE  DENSITY CHANGE    ORB. GRAD 
   1  0       -7.4199085888    -7.4199085888   0.103976247   0.000000000
          ---------------START SECOND ORDER SCF---------------
   2  1       -7.4316704572    -0.0117618683   0.013013278   0.014268590
   3  2       -7.4320815293    -0.0004110721   0.019563521   0.002720824
   4  3       -7.4321590923    -0.0000775630   0.007866924   0.001300793
   5  4       -7.4321625413    -0.0000034490   0.003106881   0.000485496
   6  5       -7.4321628421    -0.0000003008   0.000315942   0.000037381
   7  6       -7.4321628472    -0.0000000050   0.000072766   0.000016286
   8  7       -7.4321628475    -0.0000000003   0.000004519   0.000001217
   9  8       -7.4321628475    -0.0000000000   0.000001786   0.000000233

          -----------------
          DENSITY CONVERGED
          -----------------
     TIME TO FORM FOCK OPERATORS=       0.0 SECONDS (       0.0 SEC/ITER)
     TIME TO SOLVE SCF EQUATIONS=       0.0 SECONDS (       0.0 SEC/ITER)

 FINAL UHF ENERGY IS       -7.4321628475 AFTER   9 ITERATIONS

          --------------------
          SPIN SZ   =    0.500
          S-SQUARED =    0.750
          --------------------

 LZ VALUE ANALYSIS FOR THE MOS
 ----------------------------------------
 MO     1 (    1) HAS LZ(WEIGHT)= 0.00(100.0%) 
 MO     2 (    2) HAS LZ(WEIGHT)= 0.00(100.0%) 
 MO     3 (    3) HAS LZ(WEIGHT)=-1.00( 44.7%) -0.00( 10.5%)  1.00( 44.7%) 
 MO     4 (    3) HAS LZ(WEIGHT)=-1.00( 37.3%) -0.00( 25.3%)  1.00( 37.3%) 
 MO     5 (    3) HAS LZ(WEIGHT)=-1.00( 17.9%) -0.00( 64.1%)  1.00( 17.9%) 
 MO     6 (    4) HAS LZ(WEIGHT)= 0.00(100.0%) 
 MO     7 (    5) HAS LZ(WEIGHT)=-1.00( 45.8%)  0.00(  8.4%)  1.00( 45.8%) 
 MO     8 (    5) HAS LZ(WEIGHT)=-1.00(  6.6%)  0.00( 86.9%)  1.00(  6.6%) 
 MO     9 (    5) HAS LZ(WEIGHT)=-1.00( 47.6%)  0.00(  4.7%)  1.00( 47.6%) 
 MO    10 (    6) HAS LZ(WEIGHT)= 0.00(100.0%) 
 MO    11 (    7) HAS LZ(WEIGHT)=-1.00( 49.7%)  1.00( 49.7%) 
 MO    12 (    7) HAS LZ(WEIGHT)=-1.00( 49.4%)  0.00(  1.2%)  1.00( 49.4%) 
 MO    13 (    7) HAS LZ(WEIGHT)= 0.00( 98.3%) 
 MO    14 (    8) HAS LZ(WEIGHT)=-2.00( 43.1%) -1.00(  6.9%)  1.00(  6.9%)  2.00( 43.1%) 
 MO    15 (    8) HAS LZ(WEIGHT)=-2.00(  6.6%) -1.00( 43.4%)  1.00( 43.4%)  2.00(  6.6%) 
 MO    16 (    8) HAS LZ(WEIGHT)=-2.00( 18.1%) -0.00( 63.5%)  2.00( 18.1%) 
 MO    17 (    8) HAS LZ(WEIGHT)=-2.00( 31.8%) -0.00( 36.2%)  2.00( 31.8%) 
 MO    18 (    8) HAS LZ(WEIGHT)=-1.00( 49.5%)  1.00( 49.5%) 
 MO    19 (    9) HAS LZ(WEIGHT)= 0.00(100.0%) 
 MO    20 (   10) HAS LZ(WEIGHT)=-1.00( 48.8%)  0.00(  2.3%)  1.00( 48.8%) 
 MO    21 (   10) HAS LZ(WEIGHT)=-1.00( 50.0%)  1.00( 50.0%) 
 MO    22 (   10) HAS LZ(WEIGHT)=-1.00(  1.2%)  0.00( 97.6%)  1.00(  1.2%) 
 MO    23 (   11) HAS LZ(WEIGHT)=-3.00( 27.9%) -2.00(  3.9%) -1.00( 16.0%)  0.00(  4.3%)  1.00( 16.0%)  2.00(  3.9%)  3.00( 27.9%) 
 MO    24 (   11) HAS LZ(WEIGHT)=-3.00( 12.0%) -2.00( 18.2%) -1.00( 14.7%)  0.00( 10.3%)  1.00( 14.7%)  2.00( 18.2%)  3.00( 12.0%) 
 MO    25 (   11) HAS LZ(WEIGHT)=-3.00( 19.8%) -2.00(  3.8%) -1.00( 18.6%)  0.00( 15.7%)  1.00( 18.6%)  2.00(  3.8%)  3.00( 19.8%) 
 MO    26 (   11) HAS LZ(WEIGHT)=-3.00( 16.9%) -2.00( 24.1%) -1.00(  6.8%)  0.00(  4.3%)  1.00(  6.8%)  2.00( 24.1%)  3.00( 16.9%) 
 MO    27 (   11) HAS LZ(WEIGHT)=-3.00( 10.8%) -2.00(  8.7%) -1.00(  5.0%)  0.00( 50.8%)  1.00(  5.0%)  2.00(  8.7%)  3.00( 10.8%) 
 MO    28 (   11) HAS LZ(WEIGHT)=-3.00(  3.3%) -2.00( 36.7%) -1.00(  3.4%)  0.00( 13.2%)  1.00(  3.4%)  2.00( 36.7%)  3.00(  3.3%) 
 MO    29 (   11) HAS LZ(WEIGHT)=-3.00(  9.3%) -2.00(  4.6%) -1.00( 35.4%)  0.00(  1.2%)  1.00( 35.4%)  2.00(  4.6%)  3.00(  9.3%) 
 MO    30 (   12) HAS LZ(WEIGHT)=-2.00(  1.2%) -1.00( 48.8%)  1.00( 48.8%)  2.00(  1.2%) 
 MO    31 (   12) HAS LZ(WEIGHT)=-2.00( 15.5%) -1.00( 34.5%)  1.00( 34.5%)  2.00( 15.5%) 
 MO    32 (   12) HAS LZ(WEIGHT)=-2.00( 33.3%) -1.00( 16.7%)  1.00( 16.7%)  2.00( 33.3%) 
 MO    33 (   12) HAS LZ(WEIGHT)=-2.00( 49.2%) -0.00(  1.6%)  2.00( 49.2%) 
 MO    34 (   12) HAS LZ(WEIGHT)=-0.00( 98.4%) 
 MO    35 (   13) HAS LZ(WEIGHT)= 0.00(100.0%) 
 MO    36 (   14) HAS LZ(WEIGHT)=-1.00( 47.8%)  0.00(  4.4%)  1.00( 47.8%) 
 MO    37 (   14) HAS LZ(WEIGHT)=-1.00( 45.8%)  0.00(  8.4%)  1.00( 45.8%) 
 MO    38 (   14) HAS LZ(WEIGHT)=-1.00(  6.4%)  0.00( 87.2%)  1.00(  6.4%) 
 MO    39 (   15) HAS LZ(WEIGHT)= 0.00(100.0%) 
 MO    40 (   16) HAS LZ(WEIGHT)=-2.00(  7.1%) -1.00( 42.9%)  1.00( 42.9%)  2.00(  7.1%) 
 MO    41 (   16) HAS LZ(WEIGHT)=-2.00( 21.2%) -1.00( 28.8%)  1.00( 28.8%)  2.00( 21.2%) 
 MO    42 (   16) HAS LZ(WEIGHT)=-2.00( 21.1%) -1.00( 27.2%) -0.00(  3.3%)  1.00( 27.2%)  2.00( 21.1%) 
 MO    43 (   16) HAS LZ(WEIGHT)=-2.00( 14.9%) -0.00( 69.5%)  2.00( 14.9%) 
 MO    44 (   16) HAS LZ(WEIGHT)=-2.00( 35.6%) -0.00( 27.2%)  2.00( 35.6%) 
 MO    45 (   17) HAS LZ(WEIGHT)= 0.00(100.0%) 

  ----- ALPHA SET ----- 

          ------------
          EIGENVECTORS
          ------------

                      1          2          3          4          5
                   -2.4862    -0.1963     0.0114     0.0114     0.0114
                     A          A          A          A          A   
    1  LI 1  S    0.619422  -0.096630   0.000000   0.000000  -0.000000
    2  LI 1  S    0.428262  -0.147968   0.000000   0.000000  -0.000000
    3  LI 1  X   -0.000000  -0.000000   0.015946   0.026619  -0.010276
    4  LI 1  Y   -0.000000  -0.000000   0.026489  -0.009435   0.016665
    5  LI 1  Z   -0.000000  -0.000000  -0.010605   0.016457   0.026174
    6  LI 1  S    0.002251   0.622472   0.000000   0.000000  -0.000000
    7  LI 1  X   -0.000000  -0.000000   0.120760   0.201587  -0.077819
    8  LI 1  Y   -0.000000  -0.000000   0.200605  -0.071452   0.126207
    9  LI 1  Z   -0.000000  -0.000000  -0.080316   0.124633   0.198222
   10  LI 1  S    0.003766   0.285101   0.000000   0.000000  -0.000000
   11  LI 1  X   -0.000000  -0.000000  -0.009830  -0.016410   0.006335
   12  LI 1  Y   -0.000000  -0.000000  -0.016330   0.005816  -0.010274
   13  LI 1  Z   -0.000000  -0.000000   0.006538  -0.010146  -0.016136
   14  LI 1  S   -0.000395   0.011995   0.000000   0.000000  -0.000000
   15  LI 1  X   -0.000000  -0.000000   0.450108   0.751373  -0.290055
   16  LI 1  Y   -0.000000  -0.000000   0.747714  -0.266322   0.470411
   17  LI 1  Z   -0.000000  -0.000000  -0.299361   0.464544   0.738832
   18  LI 1 XX   -0.001234   0.001734   0.000000   0.000000  -0.000000
   19  LI 1 YY   -0.001234   0.001734   0.000000   0.000000  -0.000000
   20  LI 1 ZZ   -0.001234   0.001734   0.000000   0.000000  -0.000000
   21  LI 1 XY   -0.000000  -0.000000   0.000000   0.000000  -0.000000
   22  LI 1 XZ   -0.000000  -0.000000   0.000000   0.000000  -0.000000
   23  LI 1 YZ   -0.000000  -0.000000   0.000000   0.000000  -0.000000
   24  LI 1 XX   -0.001868   0.035740   0.000000   0.000000  -0.000000
   25  LI 1 YY   -0.001868   0.035740   0.000000   0.000000  -0.000000
   26  LI 1 ZZ   -0.001868   0.035740   0.000000   0.000000  -0.000000
   27  LI 1 XY   -0.000000  -0.000000   0.000000   0.000000  -0.000000
   28  LI 1 XZ   -0.000000  -0.000000   0.000000   0.000000  -0.000000
   29  LI 1 YZ   -0.000000  -0.000000   0.000000   0.000000  -0.000000
   30  LI 1 XX   -0.001561   0.042607   0.000000   0.000000  -0.000000
   31  LI 1 YY   -0.001561   0.042607   0.000000   0.000000  -0.000000
   32  LI 1 ZZ   -0.001561   0.042607   0.000000   0.000000  -0.000000
   33  LI 1 XY   -0.000000  -0.000000   0.000000   0.000000  -0.000000
   34  LI 1 XZ   -0.000000  -0.000000   0.000000   0.000000  -0.000000
   35  LI 1 YZ   -0.000000  -0.000000   0.000000   0.000000  -0.000000
   36  LI 1 XXX  -0.000000  -0.000000  -0.011244  -0.018770   0.007246
   37  LI 1 YYY  -0.000000  -0.000000  -0.018679   0.006653  -0.011751
   38  LI 1 ZZZ  -0.000000  -0.000000   0.007478  -0.011605  -0.018457
   39  LI 1 XXY  -0.000000  -0.000000  -0.008353   0.002975  -0.005255
   40  LI 1 XXZ  -0.000000  -0.000000   0.003344  -0.005190  -0.008254
   41  LI 1 YYX  -0.000000  -0.000000  -0.005029  -0.008394   0.003240
   42  LI 1 YYZ  -0.000000  -0.000000   0.003344  -0.005190  -0.008254
   43  LI 1 ZZX  -0.000000  -0.000000  -0.005029  -0.008394   0.003240
   44  LI 1 ZZY  -0.000000  -0.000000  -0.008353   0.002975  -0.005255
   45  LI 1 XYZ  -0.000000  -0.000000   0.000000   0.000000  -0.000000

                      6          7          8          9         10
                    0.0157     0.0388     0.0388     0.0388     0.0854
                     A          A          A          A          A   
    1  LI 1  S   -0.019608  -0.000000  -0.000000   0.000000   0.046183
    2  LI 1  S   -0.071684  -0.000000  -0.000000   0.000000  -0.066796
    3  LI 1  X    0.000000   0.127421  -0.019137   0.088277   0.000000
    4  LI 1  Y    0.000000  -0.078127   0.053260   0.124317   0.000000
    5  LI 1  Z    0.000000   0.045334   0.145576  -0.033878   0.000000
    6  LI 1  S   -0.631288  -0.000000  -0.000000   0.000000  -3.343108
    7  LI 1  X    0.000000  -0.294957   0.044298  -0.204345   0.000000
    8  LI 1  Y    0.000000   0.180850  -0.123288  -0.287771   0.000000
    9  LI 1  Z    0.000000  -0.104939  -0.336982   0.078422   0.000000
   10  LI 1  S    3.101700  -0.000000  -0.000000   0.000000   9.101253
   11  LI 1  X    0.000000   1.125491  -0.169031   0.779736   0.000000
   12  LI 1  Y    0.000000  -0.690086   0.470440   1.098070   0.000000
   13  LI 1  Z    0.000000   0.400426   1.285848  -0.299239   0.000000
   14  LI 1  S   -1.926180  -0.000000  -0.000000   0.000000  -1.666242
   15  LI 1  X    0.000000  -0.842804   0.126576  -0.583891   0.000000
   16  LI 1  Y    0.000000   0.516759  -0.352281  -0.822271   0.000000
   17  LI 1  Z    0.000000  -0.299852  -0.962885   0.224080   0.000000
   18  LI 1 XX   -0.020631  -0.000000  -0.000000   0.000000  -0.073094
   19  LI 1 YY   -0.020631  -0.000000  -0.000000   0.000000  -0.073094
   20  LI 1 ZZ   -0.020631  -0.000000  -0.000000   0.000000  -0.073094
   21  LI 1 XY    0.000000  -0.000000  -0.000000   0.000000   0.000000
   22  LI 1 XZ    0.000000  -0.000000  -0.000000   0.000000   0.000000
   23  LI 1 YZ    0.000000  -0.000000  -0.000000   0.000000   0.000000
   24  LI 1 XX   -0.076029  -0.000000  -0.000000   0.000000  -0.306611
   25  LI 1 YY   -0.076029  -0.000000  -0.000000   0.000000  -0.306611
   26  LI 1 ZZ   -0.076029  -0.000000  -0.000000   0.000000  -0.306611
   27  LI 1 XY    0.000000  -0.000000  -0.000000   0.000000   0.000000
   28  LI 1 XZ    0.000000  -0.000000  -0.000000   0.000000   0.000000
   29  LI 1 YZ    0.000000  -0.000000  -0.000000   0.000000   0.000000
   30  LI 1 XX   -0.511076  -0.000000  -0.000000   0.000000  -1.976218
   31  LI 1 YY   -0.511076  -0.000000  -0.000000   0.000000  -1.976218
   32  LI 1 ZZ   -0.511076  -0.000000  -0.000000   0.000000  -1.976218
   33  LI 1 XY    0.000000  -0.000000  -0.000000   0.000000   0.000000
   34  LI 1 XZ    0.000000  -0.000000  -0.000000   0.000000   0.000000
   35  LI 1 YZ    0.000000  -0.000000  -0.000000   0.000000   0.000000
   36  LI 1 XXX   0.000000   0.146374  -0.021983   0.101407   0.000000
   37  LI 1 YYY   0.000000  -0.089748   0.061182   0.142808   0.000000
   38  LI 1 ZZZ   0.000000   0.052077   0.167229  -0.038917   0.000000
   39  LI 1 XXY   0.000000  -0.040137   0.027362   0.063866   0.000000
   40  LI 1 XXZ   0.000000   0.023289   0.074787  -0.017404   0.000000
   41  LI 1 YYX   0.000000   0.065461  -0.009831   0.045351   0.000000
   42  LI 1 YYZ   0.000000   0.023289   0.074787  -0.017404   0.000000
   43  LI 1 ZZX   0.000000   0.065461  -0.009831   0.045351   0.000000
   44  LI 1 ZZY   0.000000  -0.040137   0.027362   0.063866   0.000000
   45  LI 1 XYZ   0.000000  -0.000000  -0.000000   0.000000   0.000000

                     11         12         13         14         15
                    0.1388     0.1388     0.1388     0.1480     0.1480
                     A          A          A          A          A   
    1  LI 1  S    0.000000  -0.000000  -0.000000   0.000000   0.000000
    2  LI 1  S    0.000000  -0.000000  -0.000000   0.000000   0.000000
    3  LI 1  X   -0.069501  -0.017543   0.003113   0.000000   0.000000
    4  LI 1  Y    0.017063  -0.069144  -0.008714   0.000000   0.000000
    5  LI 1  Z   -0.005131   0.007700  -0.071150   0.000000   0.000000
    6  LI 1  S    0.000000  -0.000000  -0.000000   0.000000   0.000000
    7  LI 1  X    2.631160   0.664141  -0.117855   0.000000   0.000000
    8  LI 1  Y   -0.645947   2.617615   0.329877   0.000000   0.000000
    9  LI 1  Z    0.194233  -0.291517   2.693560   0.000000   0.000000
   10  LI 1  S    0.000000  -0.000000  -0.000000   0.000000   0.000000
   11  LI 1  X   -2.088898  -0.527267   0.093566   0.000000   0.000000
   12  LI 1  Y    0.512822  -2.078145  -0.261892   0.000000   0.000000
   13  LI 1  Z   -0.154203   0.231438  -2.138438   0.000000   0.000000
   14  LI 1  S    0.000000  -0.000000  -0.000000   0.000000   0.000000
   15  LI 1  X    0.632060   0.159541  -0.028311   0.000000   0.000000
   16  LI 1  Y   -0.155170   0.628806   0.079243   0.000000   0.000000
   17  LI 1  Z    0.046659  -0.070029   0.647050   0.000000   0.000000
   18  LI 1 XX    0.000000  -0.000000  -0.000000  -0.000346  -0.000660
   19  LI 1 YY    0.000000  -0.000000  -0.000000   0.000028   0.000220
   20  LI 1 ZZ    0.000000  -0.000000  -0.000000   0.000318   0.000440
   21  LI 1 XY    0.000000  -0.000000  -0.000000   0.011197   0.004337
   22  LI 1 XZ    0.000000  -0.000000  -0.000000   0.001510  -0.001242
   23  LI 1 YZ    0.000000  -0.000000  -0.000000  -0.004203   0.011165
   24  LI 1 XX    0.000000  -0.000000  -0.000000   0.001567   0.002987
   25  LI 1 YY    0.000000  -0.000000  -0.000000  -0.000129  -0.000995
   26  LI 1 ZZ    0.000000  -0.000000  -0.000000  -0.001438  -0.001992
   27  LI 1 XY    0.000000  -0.000000  -0.000000  -0.050668  -0.019624
   28  LI 1 XZ    0.000000  -0.000000  -0.000000  -0.006834   0.005618
   29  LI 1 YZ    0.000000  -0.000000  -0.000000   0.019020  -0.050526
   30  LI 1 XX    0.000000  -0.000000  -0.000000  -0.029372  -0.055993
   31  LI 1 YY    0.000000  -0.000000  -0.000000   0.002412   0.018653
   32  LI 1 ZZ    0.000000  -0.000000  -0.000000   0.026960   0.037340
   33  LI 1 XY    0.000000  -0.000000  -0.000000   0.949864   0.367881
   34  LI 1 XZ    0.000000  -0.000000  -0.000000   0.128108  -0.105321
   35  LI 1 YZ    0.000000  -0.000000  -0.000000  -0.356571   0.947195
   36  LI 1 XXX  -0.508178  -0.128271   0.022762   0.000000   0.000000
   37  LI 1 YYY   0.124757  -0.505562  -0.063712   0.000000   0.000000
   38  LI 1 ZZZ  -0.037514   0.056303  -0.520230   0.000000   0.000000
   39  LI 1 XXY   0.055793  -0.226094  -0.028493   0.000000   0.000000
   40  LI 1 XXZ  -0.016777   0.025180  -0.232654   0.000000   0.000000
   41  LI 1 YYX  -0.227264  -0.057365   0.010180   0.000000   0.000000
   42  LI 1 YYZ  -0.016777   0.025180  -0.232654   0.000000   0.000000
   43  LI 1 ZZX  -0.227264  -0.057365   0.010180   0.000000   0.000000
   44  LI 1 ZZY   0.055793  -0.226094  -0.028493   0.000000   0.000000
   45  LI 1 XYZ   0.000000  -0.000000  -0.000000   0.000000   0.000000

                     16         17         18         19         20
                    0.1480     0.1480     0.1480     0.2625     0.3869
                     A          A          A          A          A   
    1  LI 1  S   -0.000000   0.000000   0.000000  -0.099804  -0.000000
    2  LI 1  S   -0.000000   0.000000   0.000000  -0.533663  -0.000000
    3  LI 1  X   -0.000000   0.000000   0.000000   0.000000  -1.185421
    4  LI 1  Y   -0.000000   0.000000   0.000000   0.000000   0.219092
    5  LI 1  Z   -0.000000   0.000000   0.000000   0.000000  -0.186687
    6  LI 1  S   -0.000000   0.000000   0.000000  -0.757782  -0.000000
    7  LI 1  X   -0.000000   0.000000   0.000000   0.000000   4.640078
    8  LI 1  Y   -0.000000   0.000000   0.000000   0.000000  -0.857587
    9  LI 1  Z   -0.000000   0.000000   0.000000   0.000000   0.730748
   10  LI 1  S   -0.000000   0.000000   0.000000  10.021689  -0.000000
   11  LI 1  X   -0.000000   0.000000   0.000000   0.000000  -1.703418
   12  LI 1  Y   -0.000000   0.000000   0.000000   0.000000   0.314828
   13  LI 1  Z   -0.000000   0.000000   0.000000   0.000000  -0.268265
   14  LI 1  S   -0.000000   0.000000   0.000000  -1.071471  -0.000000
   15  LI 1  X   -0.000000   0.000000   0.000000   0.000000   0.393603
   16  LI 1  Y   -0.000000   0.000000   0.000000   0.000000  -0.072746
   17  LI 1  Z   -0.000000   0.000000   0.000000   0.000000   0.061987
   18  LI 1 XX   -0.001478   0.011945  -0.000209  -0.185421  -0.000000
   19  LI 1 YY    0.011090  -0.004692   0.000642  -0.185421  -0.000000
   20  LI 1 ZZ   -0.009612  -0.007252  -0.000432  -0.185421  -0.000000
   21  LI 1 XY    0.000182   0.000570  -0.000965   0.000000  -0.000000
   22  LI 1 XZ   -0.000622   0.000107   0.011885   0.000000  -0.000000
   23  LI 1 YZ   -0.000091   0.000514   0.001691   0.000000  -0.000000
   24  LI 1 XX    0.006689  -0.054053   0.000948  -0.679647  -0.000000
   25  LI 1 YY   -0.050184   0.021234  -0.002905  -0.679647  -0.000000
   26  LI 1 ZZ    0.043495   0.032819   0.001957  -0.679647  -0.000000
   27  LI 1 XY   -0.000825  -0.002578   0.004368   0.000000  -0.000000
   28  LI 1 XZ    0.002815  -0.000483  -0.053781   0.000000  -0.000000
   29  LI 1 YZ    0.000413  -0.002324  -0.007652   0.000000  -0.000000
   30  LI 1 XX   -0.125396   1.013322  -0.017772  -3.502273  -0.000000
   31  LI 1 YY    0.940786  -0.398073   0.054460  -3.502273  -0.000000
   32  LI 1 ZZ   -0.815390  -0.615249  -0.036688  -3.502273  -0.000000
   33  LI 1 XY    0.015464   0.048338  -0.081889   0.000000  -0.000000
   34  LI 1 XZ   -0.052776   0.009046   1.008210   0.000000  -0.000000
   35  LI 1 YZ   -0.007738   0.043562   0.143459   0.000000  -0.000000
   36  LI 1 XXX  -0.000000   0.000000   0.000000   0.000000  -1.910141
   37  LI 1 YYY  -0.000000   0.000000   0.000000   0.000000   0.353035
   38  LI 1 ZZZ  -0.000000   0.000000   0.000000   0.000000  -0.300821
   39  LI 1 XXY  -0.000000   0.000000   0.000000   0.000000   0.157882
   40  LI 1 XXZ  -0.000000   0.000000   0.000000   0.000000  -0.134531
   41  LI 1 YYX  -0.000000   0.000000   0.000000   0.000000  -0.854241
   42  LI 1 YYZ  -0.000000   0.000000   0.000000   0.000000  -0.134531
   43  LI 1 ZZX  -0.000000   0.000000   0.000000   0.000000  -0.854241
   44  LI 1 ZZY  -0.000000   0.000000   0.000000   0.000000   0.157882
   45  LI 1 XYZ  -0.000000   0.000000   0.000000   0.000000  -0.000000

                     21         22         23         24         25
                    0.3869     0.3869     0.6139     0.6139     0.6139
                     A          A          A          A          A   
    1  LI 1  S   -0.000000  -0.000000   0.000000   0.000000  -0.000000
    2  LI 1  S   -0.000000  -0.000000   0.000000   0.000000  -0.000000
    3  LI 1  X   -0.218405   0.187490   0.000000   0.000000  -0.000000
    4  LI 1  Y   -1.199965  -0.012602   0.000000   0.000000  -0.000000
    5  LI 1  Z   -0.021428  -1.205307   0.000000   0.000000  -0.000000
    6  LI 1  S   -0.000000  -0.000000   0.000000   0.000000  -0.000000
    7  LI 1  X    0.854900  -0.733890   0.000000   0.000000  -0.000000
    8  LI 1  Y    4.697008   0.049328   0.000000   0.000000  -0.000000
    9  LI 1  Z    0.083874   4.717918   0.000000   0.000000  -0.000000
   10  LI 1  S   -0.000000  -0.000000   0.000000   0.000000  -0.000000
   11  LI 1  X   -0.313842   0.269418   0.000000   0.000000  -0.000000
   12  LI 1  Y   -1.724317  -0.018109   0.000000   0.000000  -0.000000
   13  LI 1  Z   -0.030791  -1.731993   0.000000   0.000000  -0.000000
   14  LI 1  S   -0.000000  -0.000000   0.000000   0.000000  -0.000000
   15  LI 1  X    0.072518  -0.062254   0.000000   0.000000  -0.000000
   16  LI 1  Y    0.398432   0.004184   0.000000   0.000000  -0.000000
   17  LI 1  Z    0.007115   0.400206   0.000000   0.000000  -0.000000
   18  LI 1 XX   -0.000000  -0.000000   0.000000   0.000000  -0.000000
   19  LI 1 YY   -0.000000  -0.000000   0.000000   0.000000  -0.000000
   20  LI 1 ZZ   -0.000000  -0.000000   0.000000   0.000000  -0.000000
   21  LI 1 XY   -0.000000  -0.000000   0.000000   0.000000  -0.000000
   22  LI 1 XZ   -0.000000  -0.000000   0.000000   0.000000  -0.000000
   23  LI 1 YZ   -0.000000  -0.000000   0.000000   0.000000  -0.000000
   24  LI 1 XX   -0.000000  -0.000000   0.000000   0.000000  -0.000000
   25  LI 1 YY   -0.000000  -0.000000   0.000000   0.000000  -0.000000
   26  LI 1 ZZ   -0.000000  -0.000000   0.000000   0.000000  -0.000000
   27  LI 1 XY   -0.000000  -0.000000   0.000000   0.000000  -0.000000
   28  LI 1 XZ   -0.000000  -0.000000   0.000000   0.000000  -0.000000
   29  LI 1 YZ   -0.000000  -0.000000   0.000000   0.000000  -0.000000
   30  LI 1 XX   -0.000000  -0.000000   0.000000   0.000000  -0.000000
   31  LI 1 YY   -0.000000  -0.000000   0.000000   0.000000  -0.000000
   32  LI 1 ZZ   -0.000000  -0.000000   0.000000   0.000000  -0.000000
   33  LI 1 XY   -0.000000  -0.000000   0.000000   0.000000  -0.000000
   34  LI 1 XZ   -0.000000  -0.000000   0.000000   0.000000  -0.000000
   35  LI 1 YZ   -0.000000  -0.000000   0.000000   0.000000  -0.000000
   36  LI 1 XXX  -0.351929   0.302114   0.935284   0.119222  -0.129242
   37  LI 1 YYY  -1.933577  -0.020306  -0.048715  -0.576268   0.022924
   38  LI 1 ZZZ  -0.034528  -1.942184   0.207482  -0.321700   0.396546
   39  LI 1 XXY  -0.864722  -0.009081   0.003190   0.391163  -0.391025
   40  LI 1 XXZ  -0.015441  -0.868571  -0.143660   0.697920  -0.481973
   41  LI 1 YYX  -0.157388   0.135109  -0.637592   0.294480   0.735786
   42  LI 1 YYZ  -0.015441  -0.868571  -0.134706  -0.266314  -0.050048
   43  LI 1 ZZX  -0.157388   0.135109  -0.617223  -0.454433  -0.562391
   44  LI 1 ZZY  -0.864722  -0.009081   0.062168   0.381981   0.360270
   45  LI 1 XYZ  -0.000000  -0.000000  -0.280175   0.230890  -0.115905

                     26         27         28         29         30
                    0.6139     0.6139     0.6139     0.6139     0.6432
                     A          A          A          A          A   
    1  LI 1  S   -0.000000   0.000000   0.000000   0.000000   0.000000
    2  LI 1  S   -0.000000   0.000000   0.000000   0.000000   0.000000
    3  LI 1  X   -0.000000   0.000000   0.000000   0.000000   0.000000
    4  LI 1  Y   -0.000000   0.000000   0.000000   0.000000   0.000000
    5  LI 1  Z   -0.000000   0.000000   0.000000   0.000000   0.000000
    6  LI 1  S   -0.000000   0.000000   0.000000   0.000000   0.000000
    7  LI 1  X   -0.000000   0.000000   0.000000   0.000000   0.000000
    8  LI 1  Y   -0.000000   0.000000   0.000000   0.000000   0.000000
    9  LI 1  Z   -0.000000   0.000000   0.000000   0.000000   0.000000
   10  LI 1  S   -0.000000   0.000000   0.000000   0.000000   0.000000
   11  LI 1  X   -0.000000   0.000000   0.000000   0.000000   0.000000
   12  LI 1  Y   -0.000000   0.000000   0.000000   0.000000   0.000000
   13  LI 1  Z   -0.000000   0.000000   0.000000   0.000000   0.000000
   14  LI 1  S   -0.000000   0.000000   0.000000   0.000000   0.000000
   15  LI 1  X   -0.000000   0.000000   0.000000   0.000000   0.000000
   16  LI 1  Y   -0.000000   0.000000   0.000000   0.000000   0.000000
   17  LI 1  Z   -0.000000   0.000000   0.000000   0.000000   0.000000
   18  LI 1 XX   -0.000000   0.000000   0.000000   0.000000   0.000770
   19  LI 1 YY   -0.000000   0.000000   0.000000   0.000000  -0.000766
   20  LI 1 ZZ   -0.000000   0.000000   0.000000   0.000000  -0.000004
   21  LI 1 XY   -0.000000   0.000000   0.000000   0.000000  -0.008823
   22  LI 1 XZ   -0.000000   0.000000   0.000000   0.000000   0.005966
   23  LI 1 YZ   -0.000000   0.000000   0.000000   0.000000  -0.055184
   24  LI 1 XX   -0.000000   0.000000   0.000000   0.000000  -0.015794
   25  LI 1 YY   -0.000000   0.000000   0.000000   0.000000   0.015706
   26  LI 1 ZZ   -0.000000   0.000000   0.000000   0.000000   0.000089
   27  LI 1 XY   -0.000000   0.000000   0.000000   0.000000   0.180934
   28  LI 1 XZ   -0.000000   0.000000   0.000000   0.000000  -0.122344
   29  LI 1 YZ   -0.000000   0.000000   0.000000   0.000000   1.131686
   30  LI 1 XX   -0.000000   0.000000   0.000000   0.000000   0.006586
   31  LI 1 YY   -0.000000   0.000000   0.000000   0.000000  -0.006549
   32  LI 1 ZZ   -0.000000   0.000000   0.000000   0.000000  -0.000037
   33  LI 1 XY   -0.000000   0.000000   0.000000   0.000000  -0.075443
   34  LI 1 XZ   -0.000000   0.000000   0.000000   0.000000   0.051014
   35  LI 1 YZ   -0.000000   0.000000   0.000000   0.000000  -0.471876
   36  LI 1 XXX  -0.047283   0.250203   0.170759   0.018194   0.000000
   37  LI 1 YYY  -0.678361   0.393970  -0.055594  -0.215732   0.000000
   38  LI 1 ZZZ  -0.207617  -0.713014   0.363669   0.111637   0.000000
   39  LI 1 XXY   0.518896  -0.473007   0.309111  -0.552759   0.000000
   40  LI 1 XXZ  -0.439598   0.198695  -0.476462  -0.015131   0.000000
   41  LI 1 YYX  -0.042898   0.007513  -0.065318  -0.399016   0.000000
   42  LI 1 YYZ   0.718145   0.757914  -0.011451  -0.134646   0.000000
   43  LI 1 ZZX   0.106334  -0.343195  -0.163779   0.374606   0.000000
   44  LI 1 ZZY   0.391221  -0.055559  -0.234524   0.842193   0.000000
   45  LI 1 XYZ  -0.186651   0.265461   0.813433   0.296273   0.000000

                     31         32         33         34         35
                    0.6432     0.6432     0.6432     0.6432     0.8073
                     A          A          A          A          A   
    1  LI 1  S    0.000000   0.000000  -0.000000  -0.000000   0.127322
    2  LI 1  S    0.000000   0.000000  -0.000000  -0.000000  -1.711143
    3  LI 1  X    0.000000   0.000000  -0.000000  -0.000000   0.000000
    4  LI 1  Y    0.000000   0.000000  -0.000000  -0.000000   0.000000
    5  LI 1  Z    0.000000   0.000000  -0.000000  -0.000000   0.000000
    6  LI 1  S    0.000000   0.000000  -0.000000  -0.000000   8.796948
    7  LI 1  X    0.000000   0.000000  -0.000000  -0.000000   0.000000
    8  LI 1  Y    0.000000   0.000000  -0.000000  -0.000000   0.000000
    9  LI 1  Z    0.000000   0.000000  -0.000000  -0.000000   0.000000
   10  LI 1  S    0.000000   0.000000  -0.000000  -0.000000  11.281539
   11  LI 1  X    0.000000   0.000000  -0.000000  -0.000000   0.000000
   12  LI 1  Y    0.000000   0.000000  -0.000000  -0.000000   0.000000
   13  LI 1  Z    0.000000   0.000000  -0.000000  -0.000000   0.000000
   14  LI 1  S    0.000000   0.000000  -0.000000  -0.000000  -1.015910
   15  LI 1  X    0.000000   0.000000  -0.000000  -0.000000   0.000000
   16  LI 1  Y    0.000000   0.000000  -0.000000  -0.000000   0.000000
   17  LI 1  Z    0.000000   0.000000  -0.000000  -0.000000   0.000000
   18  LI 1 XX    0.000199  -0.002630   0.044705   0.033962  -0.922963
   19  LI 1 YY   -0.000455   0.001918  -0.051768   0.021797  -0.922963
   20  LI 1 ZZ    0.000255   0.000713   0.007063  -0.055759  -0.922963
   21  LI 1 XY    0.031273  -0.045810  -0.002141  -0.000713   0.000000
   22  LI 1 XZ   -0.045636  -0.032236  -0.001208  -0.000774   0.000000
   23  LI 1 YZ   -0.009928   0.003797   0.001106   0.000148   0.000000
   24  LI 1 XX   -0.004090   0.053945  -0.916784  -0.696477  -4.054169
   25  LI 1 YY    0.009322  -0.039333   1.061633  -0.446995  -4.054169
   26  LI 1 ZZ   -0.005232  -0.014612  -0.144849   1.143471  -4.054169
   27  LI 1 XY   -0.641342   0.939441   0.043916   0.014620   0.000000
   28  LI 1 XZ    0.935891   0.661076   0.024769   0.015877   0.000000
   29  LI 1 YZ    0.203591  -0.077863  -0.022688  -0.003025   0.000000
   30  LI 1 XX    0.001705  -0.022493   0.382269   0.290408  -5.137804
   31  LI 1 YY   -0.003887   0.016400  -0.442666   0.186382  -5.137804
   32  LI 1 ZZ    0.002181   0.006093   0.060397  -0.476790  -5.137804
   33  LI 1 XY    0.267418  -0.391716  -0.018311  -0.006096   0.000000
   34  LI 1 XZ   -0.390236  -0.275647  -0.010328  -0.006620   0.000000
   35  LI 1 YZ   -0.084891   0.032466   0.009460   0.001261   0.000000
   36  LI 1 XXX   0.000000   0.000000  -0.000000  -0.000000   0.000000
   37  LI 1 YYY   0.000000   0.000000  -0.000000  -0.000000   0.000000
   38  LI 1 ZZZ   0.000000   0.000000  -0.000000  -0.000000   0.000000
   39  LI 1 XXY   0.000000   0.000000  -0.000000  -0.000000   0.000000
   40  LI 1 XXZ   0.000000   0.000000  -0.000000  -0.000000   0.000000
   41  LI 1 YYX   0.000000   0.000000  -0.000000  -0.000000   0.000000
   42  LI 1 YYZ   0.000000   0.000000  -0.000000  -0.000000   0.000000
   43  LI 1 ZZX   0.000000   0.000000  -0.000000  -0.000000   0.000000
   44  LI 1 ZZY   0.000000   0.000000  -0.000000  -0.000000   0.000000
   45  LI 1 XYZ   0.000000   0.000000  -0.000000  -0.000000   0.000000

                     36         37         38         39         40
                    0.8386     0.8386     0.8386     1.6356     2.6897
                     A          A          A          A          A   
    1  LI 1  S    0.000000  -0.000000  -0.000000  -0.239818  -0.000000
    2  LI 1  S    0.000000  -0.000000  -0.000000  -0.722396  -0.000000
    3  LI 1  X    0.530226   0.094947  -0.147951   0.000000  -0.000000
    4  LI 1  Y   -0.131620   0.526057  -0.134106   0.000000  -0.000000
    5  LI 1  Z    0.116535   0.162152   0.521699   0.000000  -0.000000
    6  LI 1  S    0.000000  -0.000000  -0.000000   2.606937  -0.000000
    7  LI 1  X    3.458055   0.619228  -0.964915   0.000000  -0.000000
    8  LI 1  Y   -0.858407   3.430864  -0.874618   0.000000  -0.000000
    9  LI 1  Z    0.760027   1.057533   3.402445   0.000000  -0.000000
   10  LI 1  S    0.000000  -0.000000  -0.000000   0.555673  -0.000000
   11  LI 1  X   -0.936018  -0.167611   0.261181   0.000000  -0.000000
   12  LI 1  Y    0.232352  -0.928659   0.236740   0.000000  -0.000000
   13  LI 1  Z   -0.205722  -0.286251  -0.920966   0.000000  -0.000000
   14  LI 1  S    0.000000  -0.000000  -0.000000  -0.004576  -0.000000
   15  LI 1  X    0.198363   0.035520  -0.055350   0.000000  -0.000000
   16  LI 1  Y   -0.049240   0.196803  -0.050170   0.000000  -0.000000
   17  LI 1  Z    0.043597   0.060663   0.195173   0.000000  -0.000000
   18  LI 1 XX    0.000000  -0.000000  -0.000000   0.449480  -0.003138
   19  LI 1 YY    0.000000  -0.000000  -0.000000   0.449480  -0.002997
   20  LI 1 ZZ    0.000000  -0.000000  -0.000000   0.449480   0.006135
   21  LI 1 XY    0.000000  -0.000000  -0.000000   0.000000  -0.431139
   22  LI 1 XZ    0.000000  -0.000000  -0.000000   0.000000   1.015334
   23  LI 1 YZ    0.000000  -0.000000  -0.000000   0.000000   0.291843
   24  LI 1 XX    0.000000  -0.000000  -0.000000  -1.221240   0.001535
   25  LI 1 YY    0.000000  -0.000000  -0.000000  -1.221240   0.001466
   26  LI 1 ZZ    0.000000  -0.000000  -0.000000  -1.221240  -0.003001
   27  LI 1 XY    0.000000  -0.000000  -0.000000   0.000000   0.210887
   28  LI 1 XZ    0.000000  -0.000000  -0.000000   0.000000  -0.496640
   29  LI 1 YZ    0.000000  -0.000000  -0.000000   0.000000  -0.142752
   30  LI 1 XX    0.000000  -0.000000  -0.000000  -0.487541  -0.000455
   31  LI 1 YY    0.000000  -0.000000  -0.000000  -0.487541  -0.000435
   32  LI 1 ZZ    0.000000  -0.000000  -0.000000  -0.487541   0.000890
   33  LI 1 XY    0.000000  -0.000000  -0.000000   0.000000  -0.062568
   34  LI 1 XZ    0.000000  -0.000000  -0.000000   0.000000   0.147347
   35  LI 1 YZ    0.000000  -0.000000  -0.000000   0.000000   0.042353
   36  LI 1 XXX  -2.195390  -0.393125   0.612588   0.000000  -0.000000
   37  LI 1 YYY   0.544971  -2.178128   0.555262   0.000000  -0.000000
   38  LI 1 ZZZ  -0.482513  -0.671388  -2.160085   0.000000  -0.000000
   39  LI 1 XXY   0.243718  -0.974088   0.248321   0.000000  -0.000000
   40  LI 1 XXZ  -0.215786  -0.300254  -0.966020   0.000000  -0.000000
   41  LI 1 YYX  -0.981808  -0.175811   0.273958   0.000000  -0.000000
   42  LI 1 YYZ  -0.215786  -0.300254  -0.966020   0.000000  -0.000000
   43  LI 1 ZZX  -0.981808  -0.175811   0.273958   0.000000  -0.000000
   44  LI 1 ZZY   0.243718  -0.974088   0.248321   0.000000  -0.000000
   45  LI 1 XYZ   0.000000  -0.000000  -0.000000   0.000000  -0.000000

                     41         42         43         44         45
                    2.6897     2.6897     2.6897     2.6897     7.7517
                     A          A          A          A          A   
    1  LI 1  S    0.000000   0.000000   0.000000   0.000000  -2.317480
    2  LI 1  S    0.000000   0.000000   0.000000   0.000000   3.369292
    3  LI 1  X    0.000000   0.000000   0.000000   0.000000  -0.000000
    4  LI 1  Y    0.000000   0.000000   0.000000   0.000000  -0.000000
    5  LI 1  Z    0.000000   0.000000   0.000000   0.000000  -0.000000
    6  LI 1  S    0.000000   0.000000   0.000000   0.000000  -0.724865
    7  LI 1  X    0.000000   0.000000   0.000000   0.000000  -0.000000
    8  LI 1  Y    0.000000   0.000000   0.000000   0.000000  -0.000000
    9  LI 1  Z    0.000000   0.000000   0.000000   0.000000  -0.000000
   10  LI 1  S    0.000000   0.000000   0.000000   0.000000   0.507253
   11  LI 1  X    0.000000   0.000000   0.000000   0.000000  -0.000000
   12  LI 1  Y    0.000000   0.000000   0.000000   0.000000  -0.000000
   13  LI 1  Z    0.000000   0.000000   0.000000   0.000000  -0.000000
   14  LI 1  S    0.000000   0.000000   0.000000   0.000000  -0.072303
   15  LI 1  X    0.000000   0.000000   0.000000   0.000000  -0.000000
   16  LI 1  Y    0.000000   0.000000   0.000000   0.000000  -0.000000
   17  LI 1  Z    0.000000   0.000000   0.000000   0.000000  -0.000000
   18  LI 1 XX   -0.021114   0.019228   1.010899  -0.528442  -0.780968
   19  LI 1 YY    0.009889   0.187053  -0.059785   1.123977  -0.780968
   20  LI 1 ZZ    0.011225  -0.206281  -0.951113  -0.595534  -0.780968
   21  LI 1 XY    0.743132   0.735591  -0.069761  -0.133816  -0.000000
   22  LI 1 XZ    0.515388   0.072469   0.005429  -0.013599  -0.000000
   23  LI 1 YZ   -0.695469   0.838872  -0.101778  -0.138122  -0.000000
   24  LI 1 XX    0.010328  -0.009405  -0.494471   0.258482   0.377873
   25  LI 1 YY   -0.004837  -0.091495   0.029243  -0.549782   0.377873
   26  LI 1 ZZ   -0.005490   0.100900   0.465228   0.291300   0.377873
   27  LI 1 XY   -0.363495  -0.359807   0.034123   0.065455  -0.000000
   28  LI 1 XZ   -0.252097  -0.035447  -0.002656   0.006652  -0.000000
   29  LI 1 YZ    0.340182  -0.410326   0.049784   0.067561  -0.000000
   30  LI 1 XX   -0.003064   0.002790   0.146703  -0.076688  -0.107301
   31  LI 1 YY    0.001435   0.027145  -0.008676   0.163113  -0.107301
   32  LI 1 ZZ    0.001629  -0.029936  -0.138027  -0.086425  -0.107301
   33  LI 1 XY    0.107845   0.106750  -0.010124  -0.019420  -0.000000
   34  LI 1 XZ    0.074794   0.010517   0.000788  -0.001974  -0.000000
   35  LI 1 YZ   -0.100928   0.121739  -0.014770  -0.020045  -0.000000
   36  LI 1 XXX   0.000000   0.000000   0.000000   0.000000  -0.000000
   37  LI 1 YYY   0.000000   0.000000   0.000000   0.000000  -0.000000
   38  LI 1 ZZZ   0.000000   0.000000   0.000000   0.000000  -0.000000
   39  LI 1 XXY   0.000000   0.000000   0.000000   0.000000  -0.000000
   40  LI 1 XXZ   0.000000   0.000000   0.000000   0.000000  -0.000000
   41  LI 1 YYX   0.000000   0.000000   0.000000   0.000000  -0.000000
   42  LI 1 YYZ   0.000000   0.000000   0.000000   0.000000  -0.000000
   43  LI 1 ZZX   0.000000   0.000000   0.000000   0.000000  -0.000000
   44  LI 1 ZZY   0.000000   0.000000   0.000000   0.000000  -0.000000
   45  LI 1 XYZ   0.000000   0.000000   0.000000   0.000000  -0.000000

 LZ VALUE ANALYSIS FOR THE MOS
 ----------------------------------------
 MO     1 (    1) HAS LZ(WEIGHT)= 0.00(100.0%) 
 MO     2 (    2) HAS LZ(WEIGHT)= 0.00(100.0%) 
 MO     3 (    3) HAS LZ(WEIGHT)=-1.00( 41.5%)  0.00( 17.0%)  1.00( 41.5%) 
 MO     4 (    3) HAS LZ(WEIGHT)=-1.00( 49.8%)  1.00( 49.8%) 
 MO     5 (    3) HAS LZ(WEIGHT)=-1.00(  8.7%)  0.00( 82.6%)  1.00(  8.7%) 
 MO     6 (    4) HAS LZ(WEIGHT)= 0.00(100.0%) 
 MO     7 (    5) HAS LZ(WEIGHT)=-1.00( 32.8%) -0.00( 34.4%)  1.00( 32.8%) 
 MO     8 (    5) HAS LZ(WEIGHT)=-1.00( 50.0%)  1.00( 50.0%) 
 MO     9 (    5) HAS LZ(WEIGHT)=-1.00( 17.2%) -0.00( 65.6%)  1.00( 17.2%) 
 MO    10 (    6) HAS LZ(WEIGHT)= 0.00(100.0%) 
 MO    11 (    7) HAS LZ(WEIGHT)=-2.00( 47.2%) -1.00(  2.7%)  1.00(  2.7%)  2.00( 47.2%) 
 MO    12 (    7) HAS LZ(WEIGHT)=-2.00(  1.4%) -1.00( 48.6%)  1.00( 48.6%)  2.00(  1.4%) 
 MO    13 (    7) HAS LZ(WEIGHT)=-2.00(  1.9%) -1.00( 48.1%)  1.00( 48.1%)  2.00(  1.9%) 
 MO    14 (    7) HAS LZ(WEIGHT)=-2.00(  3.5%) -0.00( 92.9%)  2.00(  3.5%) 
 MO    15 (    7) HAS LZ(WEIGHT)=-2.00( 46.1%) -0.00(  7.0%)  2.00( 46.1%) 
 MO    16 (    8) HAS LZ(WEIGHT)=-1.00( 50.0%)  1.00( 50.0%) 
 MO    17 (    8) HAS LZ(WEIGHT)=-1.00(  1.6%)  0.00( 96.9%)  1.00(  1.6%) 
 MO    18 (    8) HAS LZ(WEIGHT)=-1.00( 48.5%)  0.00(  3.0%)  1.00( 48.5%) 
 MO    19 (    9) HAS LZ(WEIGHT)= 0.00(100.0%) 
 MO    20 (   10) HAS LZ(WEIGHT)=-1.00( 49.1%)  0.00(  1.9%)  1.00( 49.1%) 
 MO    21 (   10) HAS LZ(WEIGHT)=-1.00(  2.3%)  0.00( 95.5%)  1.00(  2.3%) 
 MO    22 (   10) HAS LZ(WEIGHT)=-1.00( 48.7%)  0.00(  2.7%)  1.00( 48.7%) 
 MO    23 (   11) HAS LZ(WEIGHT)=-3.00( 29.5%) -2.00(  3.1%) -1.00( 16.0%) -0.00(  2.7%)  1.00( 16.0%)  2.00(  3.1%)  3.00( 29.5%) 
 MO    24 (   11) HAS LZ(WEIGHT)=-3.00(  7.8%) -2.00( 17.5%) -1.00( 22.3%) -0.00(  4.6%)  1.00( 22.3%)  2.00( 17.5%)  3.00(  7.8%) 
 MO    25 (   11) HAS LZ(WEIGHT)=-3.00(  2.4%) -2.00( 17.5%) -1.00( 16.1%) -0.00( 28.1%)  1.00( 16.1%)  2.00( 17.5%)  3.00(  2.4%) 
 MO    26 (   11) HAS LZ(WEIGHT)=-3.00(  3.7%) -2.00( 20.7%) -0.00( 50.3%)  2.00( 20.7%)  3.00(  3.7%) 
 MO    27 (   11) HAS LZ(WEIGHT)=-3.00( 14.3%) -2.00(  6.4%) -1.00( 22.6%) -0.00( 13.2%)  1.00( 22.6%)  2.00(  6.4%)  3.00( 14.3%) 
 MO    28 (   11) HAS LZ(WEIGHT)=-3.00( 38.3%) -1.00( 10.9%) -0.00(  1.1%)  1.00( 10.9%)  3.00( 38.3%) 
 MO    29 (   11) HAS LZ(WEIGHT)=-3.00(  4.0%) -2.00( 34.4%) -1.00( 11.6%)  1.00( 11.6%)  2.00( 34.4%)  3.00(  4.0%) 
 MO    30 (   12) HAS LZ(WEIGHT)=-1.00( 50.0%)  1.00( 50.0%) 
 MO    31 (   12) HAS LZ(WEIGHT)=-2.00( 28.2%) -1.00( 21.8%)  1.00( 21.8%)  2.00( 28.2%) 
 MO    32 (   12) HAS LZ(WEIGHT)=-2.00( 21.9%) -1.00( 28.1%)  1.00( 28.1%)  2.00( 21.9%) 
 MO    33 (   12) HAS LZ(WEIGHT)=-2.00( 47.8%) -0.00(  4.3%)  2.00( 47.8%) 
 MO    34 (   12) HAS LZ(WEIGHT)=-2.00(  2.2%) -0.00( 95.7%)  2.00(  2.2%) 
 MO    35 (   13) HAS LZ(WEIGHT)= 0.00(100.0%) 
 MO    36 (   14) HAS LZ(WEIGHT)=-1.00( 47.5%)  0.00(  5.0%)  1.00( 47.5%) 
 MO    37 (   14) HAS LZ(WEIGHT)=-1.00( 22.1%)  0.00( 55.9%)  1.00( 22.1%) 
 MO    38 (   14) HAS LZ(WEIGHT)=-1.00( 30.4%)  0.00( 39.2%)  1.00( 30.4%) 
 MO    39 (   15) HAS LZ(WEIGHT)= 0.00(100.0%) 
 MO    40 (   16) HAS LZ(WEIGHT)=-2.00(  1.3%) -1.00( 48.5%)  1.00( 48.5%)  2.00(  1.3%) 
 MO    41 (   16) HAS LZ(WEIGHT)=-2.00(  2.6%) -1.00( 31.7%) -0.00( 31.5%)  1.00( 31.7%)  2.00(  2.6%) 
 MO    42 (   16) HAS LZ(WEIGHT)=-1.00( 15.4%) -0.00( 67.6%)  1.00( 15.4%) 
 MO    43 (   16) HAS LZ(WEIGHT)=-2.00( 48.9%) -1.00(  1.0%)  1.00(  1.0%)  2.00( 48.9%) 
 MO    44 (   16) HAS LZ(WEIGHT)=-2.00( 46.3%) -1.00(  3.4%)  1.00(  3.4%)  2.00( 46.3%) 
 MO    45 (   17) HAS LZ(WEIGHT)= 0.00(100.0%) 

  ----- BETA SET ----- 

          ------------
          EIGENVECTORS
          ------------

                      1          2          3          4          5
                   -2.4683     0.0051     0.0162     0.0162     0.0162
                     A          A          A          A          A   
    1  LI 1  S    0.615045  -0.032660  -0.000000  -0.000000  -0.000000
    2  LI 1  S    0.431454  -0.032367  -0.000000  -0.000000  -0.000000
    3  LI 1  X   -0.000000  -0.000000  -0.010915  -0.006959  -0.004472
    4  LI 1  Y   -0.000000  -0.000000   0.006044  -0.011764   0.003555
    5  LI 1  Z   -0.000000  -0.000000   0.005648  -0.000860  -0.012447
    6  LI 1  S    0.001779   0.346269  -0.000000  -0.000000  -0.000000
    7  LI 1  X   -0.000000  -0.000000   0.200818   0.128044   0.082271
    8  LI 1  Y   -0.000000  -0.000000  -0.111206   0.216440  -0.065414
    9  LI 1  Z   -0.000000  -0.000000  -0.103909   0.015824   0.229007
   10  LI 1  S    0.004862  -0.976910  -0.000000  -0.000000  -0.000000
   11  LI 1  X   -0.000000  -0.000000  -0.277108  -0.176688  -0.113526
   12  LI 1  Y   -0.000000  -0.000000   0.153452  -0.298664   0.090265
   13  LI 1  Z   -0.000000  -0.000000   0.143384  -0.021836  -0.316006
   14  LI 1  S   -0.000529   1.213078  -0.000000  -0.000000  -0.000000
   15  LI 1  X   -0.000000  -0.000000   0.925751   0.590271   0.379262
   16  LI 1  Y   -0.000000  -0.000000  -0.512647   0.997764  -0.301552
   17  LI 1  Z   -0.000000  -0.000000  -0.479011   0.072948   1.055699
   18  LI 1 XX   -0.000228   0.008211  -0.000000  -0.000000  -0.000000
   19  LI 1 YY   -0.000228   0.008211  -0.000000  -0.000000  -0.000000
   20  LI 1 ZZ   -0.000228   0.008211  -0.000000  -0.000000  -0.000000
   21  LI 1 XY   -0.000000  -0.000000  -0.000000  -0.000000  -0.000000
   22  LI 1 XZ   -0.000000  -0.000000  -0.000000  -0.000000  -0.000000
   23  LI 1 YZ   -0.000000  -0.000000  -0.000000  -0.000000  -0.000000
   24  LI 1 XX   -0.001510   0.041704  -0.000000  -0.000000  -0.000000
   25  LI 1 YY   -0.001510   0.041704  -0.000000  -0.000000  -0.000000
   26  LI 1 ZZ   -0.001510   0.041704  -0.000000  -0.000000  -0.000000
   27  LI 1 XY   -0.000000  -0.000000  -0.000000  -0.000000  -0.000000
   28  LI 1 XZ   -0.000000  -0.000000  -0.000000  -0.000000  -0.000000
   29  LI 1 YZ   -0.000000  -0.000000  -0.000000  -0.000000  -0.000000
   30  LI 1 XX   -0.001910   0.207179  -0.000000  -0.000000  -0.000000
   31  LI 1 YY   -0.001910   0.207179  -0.000000  -0.000000  -0.000000
   32  LI 1 ZZ   -0.001910   0.207179  -0.000000  -0.000000  -0.000000
   33  LI 1 XY   -0.000000  -0.000000  -0.000000  -0.000000  -0.000000
   34  LI 1 XZ   -0.000000  -0.000000  -0.000000  -0.000000  -0.000000
   35  LI 1 YZ   -0.000000  -0.000000  -0.000000  -0.000000  -0.000000
   36  LI 1 XXX  -0.000000  -0.000000  -0.049097  -0.031305  -0.020114
   37  LI 1 YYY  -0.000000  -0.000000   0.027188  -0.052916   0.015993
   38  LI 1 ZZZ  -0.000000  -0.000000   0.025404  -0.003869  -0.055988
   39  LI 1 XXY  -0.000000  -0.000000   0.012159  -0.023665   0.007152
   40  LI 1 XXZ  -0.000000  -0.000000   0.011361  -0.001730  -0.025039
   41  LI 1 YYX  -0.000000  -0.000000  -0.021957  -0.014000  -0.008995
   42  LI 1 YYZ  -0.000000  -0.000000   0.011361  -0.001730  -0.025039
   43  LI 1 ZZX  -0.000000  -0.000000  -0.021957  -0.014000  -0.008995
   44  LI 1 ZZY  -0.000000  -0.000000   0.012159  -0.023665   0.007152
   45  LI 1 XYZ  -0.000000  -0.000000  -0.000000  -0.000000  -0.000000

                      6          7          8          9         10
                    0.0326     0.0616     0.0616     0.0616     0.1086
                     A          A          A          A          A   
    1  LI 1  S   -0.050700  -0.000000   0.000000   0.000000   0.066087
    2  LI 1  S   -0.138422  -0.000000   0.000000   0.000000  -0.053212
    3  LI 1  X   -0.000000   0.116891   0.065951   0.084668  -0.000000
    4  LI 1  Y   -0.000000  -0.053353   0.144334  -0.038769  -0.000000
    5  LI 1  Z   -0.000000  -0.093122   0.000091   0.128491  -0.000000
    6  LI 1  S   -1.132345  -0.000000   0.000000   0.000000  -3.384059
    7  LI 1  X   -0.000000  -0.583408  -0.329165  -0.422585  -0.000000
    8  LI 1  Y   -0.000000   0.266286  -0.720377   0.193498  -0.000000
    9  LI 1  Z   -0.000000   0.464779  -0.000454  -0.641306  -0.000000
   10  LI 1  S    4.892212  -0.000000   0.000000   0.000000   9.054806
   11  LI 1  X   -0.000000   1.276719   0.720338   0.924777  -0.000000
   12  LI 1  Y   -0.000000  -0.582736   1.576459  -0.423446  -0.000000
   13  LI 1  Z   -0.000000  -1.017113   0.000993   1.403422  -0.000000
   14  LI 1  S   -1.781366  -0.000000   0.000000   0.000000  -1.429016
   15  LI 1  X   -0.000000  -0.622431  -0.351182  -0.450850  -0.000000
   16  LI 1  Y   -0.000000   0.284097  -0.768561   0.206440  -0.000000
   17  LI 1  Z   -0.000000   0.495866  -0.000484  -0.684201  -0.000000
   18  LI 1 XX   -0.032135  -0.000000   0.000000   0.000000  -0.079828
   19  LI 1 YY   -0.032135  -0.000000   0.000000   0.000000  -0.079828
   20  LI 1 ZZ   -0.032135  -0.000000   0.000000   0.000000  -0.079828
   21  LI 1 XY   -0.000000  -0.000000   0.000000   0.000000  -0.000000
   22  LI 1 XZ   -0.000000  -0.000000   0.000000   0.000000  -0.000000
   23  LI 1 YZ   -0.000000  -0.000000   0.000000   0.000000  -0.000000
   24  LI 1 XX   -0.113316  -0.000000   0.000000   0.000000  -0.337922
   25  LI 1 YY   -0.113316  -0.000000   0.000000   0.000000  -0.337922
   26  LI 1 ZZ   -0.113316  -0.000000   0.000000   0.000000  -0.337922
   27  LI 1 XY   -0.000000  -0.000000   0.000000   0.000000  -0.000000
   28  LI 1 XZ   -0.000000  -0.000000   0.000000   0.000000  -0.000000
   29  LI 1 YZ   -0.000000  -0.000000   0.000000   0.000000  -0.000000
   30  LI 1 XX   -0.802456  -0.000000   0.000000   0.000000  -2.183148
   31  LI 1 YY   -0.802456  -0.000000   0.000000   0.000000  -2.183148
   32  LI 1 ZZ   -0.802456  -0.000000   0.000000   0.000000  -2.183148
   33  LI 1 XY   -0.000000  -0.000000   0.000000   0.000000  -0.000000
   34  LI 1 XZ   -0.000000  -0.000000   0.000000   0.000000  -0.000000
   35  LI 1 YZ   -0.000000  -0.000000   0.000000   0.000000  -0.000000
   36  LI 1 XXX  -0.000000   0.177893   0.100369   0.128855  -0.000000
   37  LI 1 YYY  -0.000000  -0.081196   0.219657  -0.059001  -0.000000
   38  LI 1 ZZZ  -0.000000  -0.141720   0.000138   0.195547  -0.000000
   39  LI 1 XXY  -0.000000  -0.036312   0.098234  -0.026386  -0.000000
   40  LI 1 XXZ  -0.000000  -0.063379   0.000062   0.087451  -0.000000
   41  LI 1 YYX  -0.000000   0.079556   0.044886   0.057625  -0.000000
   42  LI 1 YYZ  -0.000000  -0.063379   0.000062   0.087451  -0.000000
   43  LI 1 ZZX  -0.000000   0.079556   0.044886   0.057625  -0.000000
   44  LI 1 ZZY  -0.000000  -0.036312   0.098234  -0.026386  -0.000000
   45  LI 1 XYZ  -0.000000  -0.000000   0.000000   0.000000  -0.000000

                     11         12         13         14         15
                    0.1607     0.1607     0.1607     0.1607     0.1607
                     A          A          A          A          A   
    1  LI 1  S   -0.000000  -0.000000  -0.000000   0.000000  -0.000000
    2  LI 1  S   -0.000000  -0.000000  -0.000000   0.000000  -0.000000
    3  LI 1  X   -0.000000  -0.000000  -0.000000   0.000000  -0.000000
    4  LI 1  Y   -0.000000  -0.000000  -0.000000   0.000000  -0.000000
    5  LI 1  Z   -0.000000  -0.000000  -0.000000   0.000000  -0.000000
    6  LI 1  S   -0.000000  -0.000000  -0.000000   0.000000  -0.000000
    7  LI 1  X   -0.000000  -0.000000  -0.000000   0.000000  -0.000000
    8  LI 1  Y   -0.000000  -0.000000  -0.000000   0.000000  -0.000000
    9  LI 1  Z   -0.000000  -0.000000  -0.000000   0.000000  -0.000000
   10  LI 1  S   -0.000000  -0.000000  -0.000000   0.000000  -0.000000
   11  LI 1  X   -0.000000  -0.000000  -0.000000   0.000000  -0.000000
   12  LI 1  Y   -0.000000  -0.000000  -0.000000   0.000000  -0.000000
   13  LI 1  Z   -0.000000  -0.000000  -0.000000   0.000000  -0.000000
   14  LI 1  S   -0.000000  -0.000000  -0.000000   0.000000  -0.000000
   15  LI 1  X   -0.000000  -0.000000  -0.000000   0.000000  -0.000000
   16  LI 1  Y   -0.000000  -0.000000  -0.000000   0.000000  -0.000000
   17  LI 1  Z   -0.000000  -0.000000  -0.000000   0.000000  -0.000000
   18  LI 1 XX    0.000101  -0.000215   0.001136  -0.003543   0.013422
   19  LI 1 YY    0.000164   0.000120  -0.001267  -0.009886  -0.009731
   20  LI 1 ZZ   -0.000265   0.000095   0.000131   0.013429  -0.003692
   21  LI 1 XY    0.013540   0.002319   0.002298   0.000169  -0.000215
   22  LI 1 XZ   -0.000926  -0.006688   0.012115  -0.000430  -0.001239
   23  LI 1 YZ   -0.003131   0.011996   0.006330  -0.000320  -0.000405
   24  LI 1 XX   -0.000548   0.001161  -0.006146   0.019173  -0.072633
   25  LI 1 YY   -0.000886  -0.000647   0.006858   0.053495   0.052656
   26  LI 1 ZZ    0.001433  -0.000514  -0.000712  -0.072669   0.019977
   27  LI 1 XY   -0.073269  -0.012547  -0.012438  -0.000915   0.001163
   28  LI 1 XZ    0.005008   0.036189  -0.065556   0.002327   0.006703
   29  LI 1 YZ    0.016945  -0.064917  -0.034256   0.001731   0.002190
   30  LI 1 XX    0.007493  -0.015894   0.084114  -0.262387   0.993995
   31  LI 1 YY    0.012120   0.008859  -0.093852  -0.732090  -0.720603
   32  LI 1 ZZ   -0.019614   0.007035   0.009738   0.994477  -0.273392
   33  LI 1 XY    1.002692   0.171708   0.170213   0.012520  -0.015912
   34  LI 1 XZ   -0.068542  -0.495251   0.897138  -0.031850  -0.091728
   35  LI 1 YZ   -0.231897   0.888395   0.468803  -0.023688  -0.029970
   36  LI 1 XXX  -0.000000  -0.000000  -0.000000   0.000000  -0.000000
   37  LI 1 YYY  -0.000000  -0.000000  -0.000000   0.000000  -0.000000
   38  LI 1 ZZZ  -0.000000  -0.000000  -0.000000   0.000000  -0.000000
   39  LI 1 XXY  -0.000000  -0.000000  -0.000000   0.000000  -0.000000
   40  LI 1 XXZ  -0.000000  -0.000000  -0.000000   0.000000  -0.000000
   41  LI 1 YYX  -0.000000  -0.000000  -0.000000   0.000000  -0.000000
   42  LI 1 YYZ  -0.000000  -0.000000  -0.000000   0.000000  -0.000000
   43  LI 1 ZZX  -0.000000  -0.000000  -0.000000   0.000000  -0.000000
   44  LI 1 ZZY  -0.000000  -0.000000  -0.000000   0.000000  -0.000000
   45  LI 1 XYZ  -0.000000  -0.000000  -0.000000   0.000000  -0.000000

                     16         17         18         19         20
                    0.1650     0.1650     0.1650     0.2879     0.3997
                     A          A          A          A          A   
    1  LI 1  S    0.000000   0.000000   0.000000  -0.113338  -0.000000
    2  LI 1  S    0.000000   0.000000   0.000000  -0.578302  -0.000000
    3  LI 1  X   -0.092491   0.001434  -0.024965  -0.000000  -1.184391
    4  LI 1  Y    0.024823   0.016809  -0.091001  -0.000000   0.216716
    5  LI 1  Z    0.003017  -0.094315  -0.016598  -0.000000  -0.165459
    6  LI 1  S    0.000000   0.000000   0.000000  -0.193963  -0.000000
    7  LI 1  X    2.765874  -0.042892   0.746547  -0.000000   4.543396
    8  LI 1  Y   -0.742314  -0.502664   2.721310  -0.000000  -0.831336
    9  LI 1  Z   -0.090236   2.820411   0.496355  -0.000000   0.634711
   10  LI 1  S    0.000000   0.000000   0.000000   9.456143  -0.000000
   11  LI 1  X   -1.856033   0.028782  -0.500969  -0.000000  -1.638594
   12  LI 1  Y    0.498128   0.337312  -1.826129  -0.000000   0.299825
   13  LI 1  Z    0.060553  -1.892630  -0.333078  -0.000000  -0.228911
   14  LI 1  S    0.000000   0.000000   0.000000  -0.988893  -0.000000
   15  LI 1  X    0.525788  -0.008154   0.141917  -0.000000   0.376730
   16  LI 1  Y   -0.141113  -0.095556   0.517317  -0.000000  -0.068933
   17  LI 1  Z   -0.017154   0.536156   0.094356  -0.000000   0.052629
   18  LI 1 XX    0.000000   0.000000   0.000000  -0.200700  -0.000000
   19  LI 1 YY    0.000000   0.000000   0.000000  -0.200700  -0.000000
   20  LI 1 ZZ    0.000000   0.000000   0.000000  -0.200700  -0.000000
   21  LI 1 XY    0.000000   0.000000   0.000000  -0.000000  -0.000000
   22  LI 1 XZ    0.000000   0.000000   0.000000  -0.000000  -0.000000
   23  LI 1 YZ    0.000000   0.000000   0.000000  -0.000000  -0.000000
   24  LI 1 XX    0.000000   0.000000   0.000000  -0.726309  -0.000000
   25  LI 1 YY    0.000000   0.000000   0.000000  -0.726309  -0.000000
   26  LI 1 ZZ    0.000000   0.000000   0.000000  -0.726309  -0.000000
   27  LI 1 XY    0.000000   0.000000   0.000000  -0.000000  -0.000000
   28  LI 1 XZ    0.000000   0.000000   0.000000  -0.000000  -0.000000
   29  LI 1 YZ    0.000000   0.000000   0.000000  -0.000000  -0.000000
   30  LI 1 XX    0.000000   0.000000   0.000000  -3.401044  -0.000000
   31  LI 1 YY    0.000000   0.000000   0.000000  -3.401044  -0.000000
   32  LI 1 ZZ    0.000000   0.000000   0.000000  -3.401044  -0.000000
   33  LI 1 XY    0.000000   0.000000   0.000000  -0.000000  -0.000000
   34  LI 1 XZ    0.000000   0.000000   0.000000  -0.000000  -0.000000
   35  LI 1 YZ    0.000000   0.000000   0.000000  -0.000000  -0.000000
   36  LI 1 XXX  -0.571637   0.008865  -0.154293  -0.000000  -1.903732
   37  LI 1 YYY   0.153418   0.103888  -0.562427  -0.000000   0.348339
   38  LI 1 ZZZ   0.018650  -0.582909  -0.102584  -0.000000  -0.265951
   39  LI 1 XXY   0.068611   0.046460  -0.251525  -0.000000   0.155782
   40  LI 1 XXZ   0.008340  -0.260685  -0.045877  -0.000000  -0.118937
   41  LI 1 YYX  -0.255644   0.003964  -0.069002  -0.000000  -0.851375
   42  LI 1 YYZ   0.008340  -0.260685  -0.045877  -0.000000  -0.118937
   43  LI 1 ZZX  -0.255644   0.003964  -0.069002  -0.000000  -0.851375
   44  LI 1 ZZY   0.068611   0.046460  -0.251525  -0.000000   0.155782
   45  LI 1 XYZ   0.000000   0.000000   0.000000  -0.000000  -0.000000

                     21         22         23         24         25
                    0.3997     0.3997     0.6281     0.6281     0.6281
                     A          A          A          A          A   
    1  LI 1  S    0.000000  -0.000000   0.000000   0.000000  -0.000000
    2  LI 1  S    0.000000  -0.000000   0.000000   0.000000  -0.000000
    3  LI 1  X    0.196696  -0.188821   0.000000   0.000000  -0.000000
    4  LI 1  Y    0.168362  -1.183982   0.000000   0.000000  -0.000000
    5  LI 1  Z   -1.187472  -0.199144   0.000000   0.000000  -0.000000
    6  LI 1  S    0.000000  -0.000000   0.000000   0.000000  -0.000000
    7  LI 1  X   -0.754537   0.724329   0.000000   0.000000  -0.000000
    8  LI 1  Y   -0.645846   4.541827   0.000000   0.000000  -0.000000
    9  LI 1  Z    4.555215   0.763927   0.000000   0.000000  -0.000000
   10  LI 1  S    0.000000  -0.000000   0.000000   0.000000  -0.000000
   11  LI 1  X    0.272127  -0.261232   0.000000   0.000000  -0.000000
   12  LI 1  Y    0.232927  -1.638028   0.000000   0.000000  -0.000000
   13  LI 1  Z   -1.642857  -0.275513   0.000000   0.000000  -0.000000
   14  LI 1  S    0.000000  -0.000000   0.000000   0.000000  -0.000000
   15  LI 1  X   -0.062565   0.060060   0.000000   0.000000  -0.000000
   16  LI 1  Y   -0.053552   0.376600   0.000000   0.000000  -0.000000
   17  LI 1  Z    0.377710   0.063343   0.000000   0.000000  -0.000000
   18  LI 1 XX    0.000000  -0.000000   0.000000   0.000000  -0.000000
   19  LI 1 YY    0.000000  -0.000000   0.000000   0.000000  -0.000000
   20  LI 1 ZZ    0.000000  -0.000000   0.000000   0.000000  -0.000000
   21  LI 1 XY    0.000000  -0.000000   0.000000   0.000000  -0.000000
   22  LI 1 XZ    0.000000  -0.000000   0.000000   0.000000  -0.000000
   23  LI 1 YZ    0.000000  -0.000000   0.000000   0.000000  -0.000000
   24  LI 1 XX    0.000000  -0.000000   0.000000   0.000000  -0.000000
   25  LI 1 YY    0.000000  -0.000000   0.000000   0.000000  -0.000000
   26  LI 1 ZZ    0.000000  -0.000000   0.000000   0.000000  -0.000000
   27  LI 1 XY    0.000000  -0.000000   0.000000   0.000000  -0.000000
   28  LI 1 XZ    0.000000  -0.000000   0.000000   0.000000  -0.000000
   29  LI 1 YZ    0.000000  -0.000000   0.000000   0.000000  -0.000000
   30  LI 1 XX    0.000000  -0.000000   0.000000   0.000000  -0.000000
   31  LI 1 YY    0.000000  -0.000000   0.000000   0.000000  -0.000000
   32  LI 1 ZZ    0.000000  -0.000000   0.000000   0.000000  -0.000000
   33  LI 1 XY    0.000000  -0.000000   0.000000   0.000000  -0.000000
   34  LI 1 XZ    0.000000  -0.000000   0.000000   0.000000  -0.000000
   35  LI 1 YZ    0.000000  -0.000000   0.000000   0.000000  -0.000000
   36  LI 1 XXX   0.316159  -0.303501   0.942532  -0.088579   0.012862
   37  LI 1 YYY   0.270616  -1.903074  -0.049061  -0.066310   0.236151
   38  LI 1 ZZZ  -1.908684  -0.320094   0.165312  -0.213847  -0.530063
   39  LI 1 XXY   0.121023  -0.851081  -0.082507  -0.559680   0.253611
   40  LI 1 XXZ  -0.853589  -0.143150   0.022814   0.569958   0.786560
   41  LI 1 YYX   0.141391  -0.135730  -0.662931  -0.221132  -0.263575
   42  LI 1 YYZ  -0.853589  -0.143150  -0.244603  -0.283051  -0.075406
   43  LI 1 ZZX   0.141391  -0.135730  -0.601608   0.339974   0.246319
   44  LI 1 ZZY   0.121023  -0.851081   0.148330   0.648645  -0.570441
   45  LI 1 XYZ   0.000000  -0.000000  -0.197602   0.328412  -0.320033

                     26         27         28         29         30
                    0.6281     0.6281     0.6281     0.6281     0.6634
                     A          A          A          A          A   
    1  LI 1  S   -0.000000  -0.000000  -0.000000  -0.000000  -0.000000
    2  LI 1  S   -0.000000  -0.000000  -0.000000  -0.000000  -0.000000
    3  LI 1  X   -0.000000  -0.000000  -0.000000  -0.000000  -0.000000
    4  LI 1  Y   -0.000000  -0.000000  -0.000000  -0.000000  -0.000000
    5  LI 1  Z   -0.000000  -0.000000  -0.000000  -0.000000  -0.000000
    6  LI 1  S   -0.000000  -0.000000  -0.000000  -0.000000  -0.000000
    7  LI 1  X   -0.000000  -0.000000  -0.000000  -0.000000  -0.000000
    8  LI 1  Y   -0.000000  -0.000000  -0.000000  -0.000000  -0.000000
    9  LI 1  Z   -0.000000  -0.000000  -0.000000  -0.000000  -0.000000
   10  LI 1  S   -0.000000  -0.000000  -0.000000  -0.000000  -0.000000
   11  LI 1  X   -0.000000  -0.000000  -0.000000  -0.000000  -0.000000
   12  LI 1  Y   -0.000000  -0.000000  -0.000000  -0.000000  -0.000000
   13  LI 1  Z   -0.000000  -0.000000  -0.000000  -0.000000  -0.000000
   14  LI 1  S   -0.000000  -0.000000  -0.000000  -0.000000  -0.000000
   15  LI 1  X   -0.000000  -0.000000  -0.000000  -0.000000  -0.000000
   16  LI 1  Y   -0.000000  -0.000000  -0.000000  -0.000000  -0.000000
   17  LI 1  Z   -0.000000  -0.000000  -0.000000  -0.000000  -0.000000
   18  LI 1 XX   -0.000000  -0.000000  -0.000000  -0.000000   0.000251
   19  LI 1 YY   -0.000000  -0.000000  -0.000000  -0.000000   0.000189
   20  LI 1 ZZ   -0.000000  -0.000000  -0.000000  -0.000000  -0.000440
   21  LI 1 XY   -0.000000  -0.000000  -0.000000  -0.000000   0.001181
   22  LI 1 XZ   -0.000000  -0.000000  -0.000000  -0.000000  -0.004377
   23  LI 1 YZ   -0.000000  -0.000000  -0.000000  -0.000000  -0.055419
   24  LI 1 XX   -0.000000  -0.000000  -0.000000  -0.000000  -0.005195
   25  LI 1 YY   -0.000000  -0.000000  -0.000000  -0.000000  -0.003911
   26  LI 1 ZZ   -0.000000  -0.000000  -0.000000  -0.000000   0.009106
   27  LI 1 XY   -0.000000  -0.000000  -0.000000  -0.000000  -0.024458
   28  LI 1 XZ   -0.000000  -0.000000  -0.000000  -0.000000   0.090631
   29  LI 1 YZ   -0.000000  -0.000000  -0.000000  -0.000000   1.147512
   30  LI 1 XX   -0.000000  -0.000000  -0.000000  -0.000000   0.002086
   31  LI 1 YY   -0.000000  -0.000000  -0.000000  -0.000000   0.001571
   32  LI 1 ZZ   -0.000000  -0.000000  -0.000000  -0.000000  -0.003657
   33  LI 1 XY   -0.000000  -0.000000  -0.000000  -0.000000   0.009823
   34  LI 1 XZ   -0.000000  -0.000000  -0.000000  -0.000000  -0.036399
   35  LI 1 YZ   -0.000000  -0.000000  -0.000000  -0.000000  -0.460866
   36  LI 1 XXX   0.259557  -0.042149   0.032309   0.182845  -0.000000
   37  LI 1 YYY   0.030677  -0.114047   0.960328  -0.035362  -0.000000
   38  LI 1 ZZZ  -0.709070  -0.363868   0.102949  -0.013974  -0.000000
   39  LI 1 XXY  -0.091525  -0.141498  -0.803805   0.375673  -0.000000
   40  LI 1 XXZ  -0.040030   0.414591  -0.092373   0.271902  -0.000000
   41  LI 1 YYX  -0.253020   0.732454   0.116904   0.167263  -0.000000
   42  LI 1 YYZ   0.991348   0.073589  -0.045749  -0.253154  -0.000000
   43  LI 1 ZZX  -0.095212  -0.675905  -0.160251  -0.412576  -0.000000
   44  LI 1 ZZY   0.050368   0.294507  -0.484610  -0.328231  -0.000000
   45  LI 1 XYZ   0.243549  -0.299217   0.076392   0.772008  -0.000000

                     31         32         33         34         35
                    0.6634     0.6634     0.6634     0.6634     0.8152
                     A          A          A          A          A   
    1  LI 1  S    0.000000   0.000000   0.000000   0.000000   0.130275
    2  LI 1  S    0.000000   0.000000   0.000000   0.000000  -1.702166
    3  LI 1  X    0.000000   0.000000   0.000000   0.000000   0.000000
    4  LI 1  Y    0.000000   0.000000   0.000000   0.000000   0.000000
    5  LI 1  Z    0.000000   0.000000   0.000000   0.000000   0.000000
    6  LI 1  S    0.000000   0.000000   0.000000   0.000000   8.792766
    7  LI 1  X    0.000000   0.000000   0.000000   0.000000   0.000000
    8  LI 1  Y    0.000000   0.000000   0.000000   0.000000   0.000000
    9  LI 1  Z    0.000000   0.000000   0.000000   0.000000   0.000000
   10  LI 1  S    0.000000   0.000000   0.000000   0.000000  11.134610
   11  LI 1  X    0.000000   0.000000   0.000000   0.000000   0.000000
   12  LI 1  Y    0.000000   0.000000   0.000000   0.000000   0.000000
   13  LI 1  Z    0.000000   0.000000   0.000000   0.000000   0.000000
   14  LI 1  S    0.000000   0.000000   0.000000   0.000000  -1.001000
   15  LI 1  X    0.000000   0.000000   0.000000   0.000000   0.000000
   16  LI 1  Y    0.000000   0.000000   0.000000   0.000000   0.000000
   17  LI 1  Z    0.000000   0.000000   0.000000   0.000000   0.000000
   18  LI 1 XX   -0.000537  -0.002815  -0.052804   0.017191  -0.916319
   19  LI 1 YY   -0.000127   0.002310   0.041268   0.037197  -0.916319
   20  LI 1 ZZ    0.000663   0.000505   0.011536  -0.054388  -0.916319
   21  LI 1 XY   -0.041730  -0.036661   0.002261  -0.000379   0.000000
   22  LI 1 XZ    0.036550  -0.041627   0.001996   0.000518   0.000000
   23  LI 1 YZ   -0.003782   0.002500  -0.000236   0.000375   0.000000
   24  LI 1 XX    0.011116   0.058291   1.093353  -0.355965  -4.049644
   25  LI 1 YY    0.002620  -0.047840  -0.854495  -0.770200  -4.049644
   26  LI 1 ZZ   -0.013736  -0.010451  -0.238858   1.126164  -4.049644
   27  LI 1 XY    0.864060   0.759097  -0.046815   0.007852   0.000000
   28  LI 1 XZ   -0.756794   0.861921  -0.041320  -0.010729   0.000000
   29  LI 1 YZ    0.078300  -0.051773   0.004888  -0.007768   0.000000
   30  LI 1 XX   -0.004465  -0.023411  -0.439114   0.142963  -5.082125
   31  LI 1 YY   -0.001052   0.019213   0.343184   0.309329  -5.082125
   32  LI 1 ZZ    0.005517   0.004197   0.095931  -0.452292  -5.082125
   33  LI 1 XY   -0.347025  -0.304870   0.018802  -0.003154   0.000000
   34  LI 1 XZ    0.303945  -0.346166   0.016595   0.004309   0.000000
   35  LI 1 YZ   -0.031447   0.020793  -0.001963   0.003120   0.000000
   36  LI 1 XXX   0.000000   0.000000   0.000000   0.000000   0.000000
   37  LI 1 YYY   0.000000   0.000000   0.000000   0.000000   0.000000
   38  LI 1 ZZZ   0.000000   0.000000   0.000000   0.000000   0.000000
   39  LI 1 XXY   0.000000   0.000000   0.000000   0.000000   0.000000
   40  LI 1 XXZ   0.000000   0.000000   0.000000   0.000000   0.000000
   41  LI 1 YYX   0.000000   0.000000   0.000000   0.000000   0.000000
   42  LI 1 YYZ   0.000000   0.000000   0.000000   0.000000   0.000000
   43  LI 1 ZZX   0.000000   0.000000   0.000000   0.000000   0.000000
   44  LI 1 ZZY   0.000000   0.000000   0.000000   0.000000   0.000000
   45  LI 1 XYZ   0.000000   0.000000   0.000000   0.000000   0.000000

                     36         37         38         39         40
                    0.8471     0.8471     0.8471     1.6527     2.6940
                     A          A          A          A          A   
    1  LI 1  S   -0.000000  -0.000000  -0.000000  -0.242166   0.000000
    2  LI 1  S   -0.000000  -0.000000  -0.000000  -0.717732   0.000000
    3  LI 1  X    0.536227  -0.011468   0.177167   0.000000   0.000000
    4  LI 1  Y   -0.125236   0.375100   0.403329   0.000000   0.000000
    5  LI 1  Z    0.125839   0.422169  -0.353548   0.000000   0.000000
    6  LI 1  S   -0.000000  -0.000000  -0.000000   2.552855   0.000000
    7  LI 1  X    3.423609  -0.073217   1.131145   0.000000   0.000000
    8  LI 1  Y   -0.799587   2.394875   2.575108   0.000000   0.000000
    9  LI 1  Z    0.803436   2.695396  -2.257273   0.000000   0.000000
   10  LI 1  S   -0.000000  -0.000000  -0.000000   0.524675   0.000000
   11  LI 1  X   -0.925363   0.019790  -0.305736   0.000000   0.000000
   12  LI 1  Y    0.216119  -0.647308  -0.696023   0.000000   0.000000
   13  LI 1  Z   -0.217160  -0.728535   0.610115   0.000000   0.000000
   14  LI 1  S   -0.000000  -0.000000  -0.000000  -0.002410   0.000000
   15  LI 1  X    0.196054  -0.004193   0.064775   0.000000   0.000000
   16  LI 1  Y   -0.045789   0.137143   0.147464   0.000000   0.000000
   17  LI 1  Z    0.046009   0.154353  -0.129263   0.000000   0.000000
   18  LI 1 XX   -0.000000  -0.000000  -0.000000   0.455025   0.018919
   19  LI 1 YY   -0.000000  -0.000000  -0.000000   0.455025   0.045024
   20  LI 1 ZZ   -0.000000  -0.000000  -0.000000   0.455025  -0.063943
   21  LI 1 XY   -0.000000  -0.000000  -0.000000   0.000000   0.184136
   22  LI 1 XZ   -0.000000  -0.000000  -0.000000   0.000000   1.117265
   23  LI 1 YZ   -0.000000  -0.000000  -0.000000   0.000000   0.124536
   24  LI 1 XX   -0.000000  -0.000000  -0.000000  -1.198046  -0.009259
   25  LI 1 YY   -0.000000  -0.000000  -0.000000  -1.198046  -0.022036
   26  LI 1 ZZ   -0.000000  -0.000000  -0.000000  -1.198046   0.031295
   27  LI 1 XY   -0.000000  -0.000000  -0.000000   0.000000  -0.090120
   28  LI 1 XZ   -0.000000  -0.000000  -0.000000   0.000000  -0.546815
   29  LI 1 YZ   -0.000000  -0.000000  -0.000000   0.000000  -0.060951
   30  LI 1 XX   -0.000000  -0.000000  -0.000000  -0.470092   0.002735
   31  LI 1 YY   -0.000000  -0.000000  -0.000000  -0.470092   0.006509
   32  LI 1 ZZ   -0.000000  -0.000000  -0.000000  -0.470092  -0.009244
   33  LI 1 XY   -0.000000  -0.000000  -0.000000   0.000000   0.026619
   34  LI 1 XZ   -0.000000  -0.000000  -0.000000   0.000000   0.161513
   35  LI 1 YZ   -0.000000  -0.000000  -0.000000   0.000000   0.018003
   36  LI 1 XXX  -2.183896   0.046705  -0.721549   0.000000   0.000000
   37  LI 1 YYY   0.510051  -1.527674  -1.642643   0.000000   0.000000
   38  LI 1 ZZZ  -0.512506  -1.719374   1.439898   0.000000   0.000000
   39  LI 1 XXY   0.228102  -0.683197  -0.734612   0.000000   0.000000
   40  LI 1 XXZ  -0.229200  -0.768928   0.643942   0.000000   0.000000
   41  LI 1 YYX  -0.976668   0.020887  -0.322687   0.000000   0.000000
   42  LI 1 YYZ  -0.229200  -0.768928   0.643942   0.000000   0.000000
   43  LI 1 ZZX  -0.976668   0.020887  -0.322687   0.000000   0.000000
   44  LI 1 ZZY   0.228102  -0.683197  -0.734612   0.000000   0.000000
   45  LI 1 XYZ  -0.000000  -0.000000  -0.000000   0.000000   0.000000

                     41         42         43         44         45
                    2.6940     2.6940     2.6940     2.6940     7.7636
                     A          A          A          A          A   
    1  LI 1  S   -0.000000  -0.000000  -0.000000  -0.000000  -2.318445
    2  LI 1  S   -0.000000  -0.000000  -0.000000  -0.000000   3.368317
    3  LI 1  X   -0.000000  -0.000000  -0.000000  -0.000000  -0.000000
    4  LI 1  Y   -0.000000  -0.000000  -0.000000  -0.000000  -0.000000
    5  LI 1  Z   -0.000000  -0.000000  -0.000000  -0.000000  -0.000000
    6  LI 1  S   -0.000000  -0.000000  -0.000000  -0.000000  -0.723232
    7  LI 1  X   -0.000000  -0.000000  -0.000000  -0.000000  -0.000000
    8  LI 1  Y   -0.000000  -0.000000  -0.000000  -0.000000  -0.000000
    9  LI 1  Z   -0.000000  -0.000000  -0.000000  -0.000000  -0.000000
   10  LI 1  S   -0.000000  -0.000000  -0.000000  -0.000000   0.506965
   11  LI 1  X   -0.000000  -0.000000  -0.000000  -0.000000  -0.000000
   12  LI 1  Y   -0.000000  -0.000000  -0.000000  -0.000000  -0.000000
   13  LI 1  Z   -0.000000  -0.000000  -0.000000  -0.000000  -0.000000
   14  LI 1  S   -0.000000  -0.000000  -0.000000  -0.000000  -0.072235
   15  LI 1  X   -0.000000  -0.000000  -0.000000  -0.000000  -0.000000
   16  LI 1  Y   -0.000000  -0.000000  -0.000000  -0.000000  -0.000000
   17  LI 1  Z   -0.000000  -0.000000  -0.000000  -0.000000  -0.000000
   18  LI 1 XX   -0.414096  -0.361570   0.997676  -0.063931  -0.780716
   19  LI 1 YY   -0.226319  -0.576455  -0.957201  -0.015201  -0.780716
   20  LI 1 ZZ    0.640415   0.938025  -0.040476   0.079132  -0.780716
   21  LI 1 XY   -0.235502   0.080616  -0.001647   1.098246  -0.000000
   22  LI 1 XZ   -0.027175   0.111486  -0.004964  -0.201343  -0.000000
   23  LI 1 YZ    0.907704  -0.622737   0.162783   0.219719  -0.000000
   24  LI 1 XX    0.202668   0.176961  -0.488285   0.031289   0.377179
   25  LI 1 YY    0.110766   0.282130   0.468476   0.007439   0.377179
   26  LI 1 ZZ   -0.313434  -0.459091   0.019810  -0.038729   0.377179
   27  LI 1 XY    0.115260  -0.039456   0.000806  -0.537506  -0.000000
   28  LI 1 XZ    0.013300  -0.054564   0.002430   0.098542  -0.000000
   29  LI 1 YZ   -0.444251   0.304781  -0.079670  -0.107535  -0.000000
   30  LI 1 XX   -0.059862  -0.052269   0.144225  -0.009242  -0.107377
   31  LI 1 YY   -0.032717  -0.083333  -0.138374  -0.002197  -0.107377
   32  LI 1 ZZ    0.092579   0.135602  -0.005851   0.011439  -0.107377
   33  LI 1 XY   -0.034044   0.011654  -0.000238   0.158763  -0.000000
   34  LI 1 XZ   -0.003928   0.016116  -0.000718  -0.029106  -0.000000
   35  LI 1 YZ    0.131218  -0.090023   0.023532   0.031763  -0.000000
   36  LI 1 XXX  -0.000000  -0.000000  -0.000000  -0.000000  -0.000000
   37  LI 1 YYY  -0.000000  -0.000000  -0.000000  -0.000000  -0.000000
   38  LI 1 ZZZ  -0.000000  -0.000000  -0.000000  -0.000000  -0.000000
   39  LI 1 XXY  -0.000000  -0.000000  -0.000000  -0.000000  -0.000000
   40  LI 1 XXZ  -0.000000  -0.000000  -0.000000  -0.000000  -0.000000
   41  LI 1 YYX  -0.000000  -0.000000  -0.000000  -0.000000  -0.000000
   42  LI 1 YYZ  -0.000000  -0.000000  -0.000000  -0.000000  -0.000000
   43  LI 1 ZZX  -0.000000  -0.000000  -0.000000  -0.000000  -0.000000
   44  LI 1 ZZY  -0.000000  -0.000000  -0.000000  -0.000000  -0.000000
   45  LI 1 XYZ  -0.000000  -0.000000  -0.000000  -0.000000  -0.000000
 ...... END OF UHF CALCULATION ......
 STEP CPU TIME =     0.02 TOTAL CPU TIME =          0.1 (      0.0 MIN)
 TOTAL WALL CLOCK TIME=          0.1 SECONDS, CPU UTILIZATION IS    85.71%

     ----------------------------------------------------------------
     PROPERTY VALUES FOR THE UHF   SELF-CONSISTENT FIELD WAVEFUNCTION
     ----------------------------------------------------------------

          -----------------
          ENERGY COMPONENTS
          -----------------

         WAVEFUNCTION NORMALIZATION =       1.0000000000

                ONE ELECTRON ENERGY =      -9.7134422539
                TWO ELECTRON ENERGY =       2.2812794064
           NUCLEAR REPULSION ENERGY =       0.0000000000
                                      ------------------
                       TOTAL ENERGY =      -7.4321628475

 ELECTRON-ELECTRON POTENTIAL ENERGY =       2.2812794064
  NUCLEUS-ELECTRON POTENTIAL ENERGY =     -17.1446939232
   NUCLEUS-NUCLEUS POTENTIAL ENERGY =       0.0000000000
                                      ------------------
             TOTAL POTENTIAL ENERGY =     -14.8634145168
               TOTAL KINETIC ENERGY =       7.4312516693
                 VIRIAL RATIO (V/T) =       2.0001226144

          ---------------------------------------
          MULLIKEN AND LOWDIN POPULATION ANALYSES
          ---------------------------------------

     ATOMIC MULLIKEN POPULATION IN EACH MOLECULAR ORBITAL
        ALPHA ORBITALS

                      1          2

                  1.000000   1.000000

    1             1.000000   1.000000

     ATOMIC MULLIKEN POPULATION IN EACH MOLECULAR ORBITAL
         BETA ORBITALS

                      1

                  1.000000

    1             1.000000

     ATOMIC SPIN POPULATION (ALPHA MINUS BETA)
       ATOM         MULL.POP.                    LOW.POP.
    1 LI            1.000000                     1.000000


          ********* ALL ELECTRONS ********

               ----- POPULATIONS IN EACH AO -----
                             MULLIKEN      LOWDIN
              1  LI 1  S      1.20051     1.11021
              2  LI 1  S      0.79466     0.75775
              3  LI 1  X      0.00000     0.00000
              4  LI 1  Y      0.00000     0.00000
              5  LI 1  Z      0.00000     0.00000
              6  LI 1  S      0.58512     0.24976
              7  LI 1  X      0.00000     0.00000
              8  LI 1  Y      0.00000     0.00000
              9  LI 1  Z      0.00000     0.00000
             10  LI 1  S      0.26631     0.17546
             11  LI 1  X      0.00000     0.00000
             12  LI 1  Y      0.00000     0.00000
             13  LI 1  Z      0.00000     0.00000
             14  LI 1  S      0.00730     0.04487
             15  LI 1  X      0.00000     0.00000
             16  LI 1  Y      0.00000     0.00000
             17  LI 1  Z      0.00000     0.00000
             18  LI 1 XX     -0.00012     0.04633
             19  LI 1 YY     -0.00012     0.04633
             20  LI 1 ZZ     -0.00012     0.04633
             21  LI 1 XY      0.00000     0.00000
             22  LI 1 XZ      0.00000     0.00000
             23  LI 1 YZ      0.00000     0.00000
             24  LI 1 XX      0.02265     0.09614
             25  LI 1 YY      0.02265     0.09614
             26  LI 1 ZZ      0.02265     0.09614
             27  LI 1 XY      0.00000     0.00000
             28  LI 1 XZ      0.00000     0.00000
             29  LI 1 YZ      0.00000     0.00000
             30  LI 1 XX      0.02618     0.07818
             31  LI 1 YY      0.02618     0.07818
             32  LI 1 ZZ      0.02618     0.07818
             33  LI 1 XY      0.00000     0.00000
             34  LI 1 XZ      0.00000     0.00000
             35  LI 1 YZ      0.00000     0.00000
             36  LI 1 XXX     0.00000     0.00000
             37  LI 1 YYY     0.00000     0.00000
             38  LI 1 ZZZ     0.00000     0.00000
             39  LI 1 XXY     0.00000     0.00000
             40  LI 1 XXZ     0.00000     0.00000
             41  LI 1 YYX     0.00000     0.00000
             42  LI 1 YYZ     0.00000     0.00000
             43  LI 1 ZZX     0.00000     0.00000
             44  LI 1 ZZY     0.00000     0.00000
             45  LI 1 XYZ     0.00000     0.00000

          ----- MULLIKEN ATOMIC OVERLAP POPULATIONS -----
          (OFF-DIAGONAL ELEMENTS NEED TO BE MULTIPLIED BY 2)

             1

    1    3.0000000

          TOTAL MULLIKEN AND LOWDIN ATOMIC POPULATIONS
       ATOM         MULL.POP.    CHARGE          LOW.POP.     CHARGE
    1 LI            3.000000    0.000000         3.000000   -0.000000

          -------------------------------
          BOND ORDER AND VALENCE ANALYSIS     BOND ORDER THRESHOLD=0.050
          -------------------------------

                   BOND                       BOND                       BOND
  ATOM PAIR DIST  ORDER      ATOM PAIR DIST  ORDER      ATOM PAIR DIST  ORDER

                       TOTAL       BONDED        FREE
      ATOM            VALENCE     VALENCE     VALENCE
    1 LI                1.000       0.000       1.000

          -----------------------------------------
          ATOMIC SPIN DENSITY AT THE NUCLEUS (A.U.)
          -----------------------------------------
                            SPIN DENS    ALPHA DENS     BETA DENS
    1  LI           3.0     0.2207841       6.62654       6.40576

          ---------------------
          ELECTROSTATIC MOMENTS
          ---------------------

 POINT   1           X           Y           Z (BOHR)    CHARGE
                 0.000000    0.000000    0.000000        0.00 (A.U.)
         DX          DY          DZ         /D/  (DEBYE)
     0.000000    0.000000    0.000000    0.000000
 ...... END OF PROPERTY EVALUATION ......
 STEP CPU TIME =     0.00 TOTAL CPU TIME =          0.1 (      0.0 MIN)
 TOTAL WALL CLOCK TIME=          0.1 SECONDS, CPU UTILIZATION IS    85.71%
               580000  WORDS OF DYNAMIC MEMORY USED
 EXECUTION OF GAMESS TERMINATED NORMALLY Thu Jun 13 22:30:58 2019
 DDI: 263640 bytes (0.3 MB / 0 MWords) used by master data server.

 ----------------------------------------
 CPU timing information for all processes
 ========================================
 0: 0.64 + 0.08 = 0.72
 ----------------------------------------
 ddikick.x: exited gracefully.
----- accounting info -----
Files used on the master node amlan-PT-3420 were:
-rw-rw-r-- 1 akroy akroy   67116 Jun 13 22:30 /tmp/li_atom_6_311g3df3pd_all.dat
-rw-rw-r-- 1 akroy akroy     253 Jun 13 22:30 /tmp/li_atom_6_311g3df3pd_all.F05
-rw-rw-r-- 1 akroy akroy  900080 Jun 13 22:30 /tmp/li_atom_6_311g3df3pd_all.F08
-rw-rw-r-- 1 akroy akroy 1930480 Jun 13 22:31 /tmp/li_atom_6_311g3df3pd_all.F10
Thu Jun 13 22:31:01 IST 2019
0.0u 0.0s 0:03.25 2.4% 0+0k 0+16io 0pf+0w
