----- GAMESS execution script 'rungms' -----
This job is running on host amlan-PT-3420
under operating system Linux at Thu Jun 13 17:32:55 IST 2019
Available scratch disk space (Kbyte units) at beginning of the job is
Filesystem      1K-blocks     Used  Available Use% Mounted on
/dev/sda3      1916812448 56947596 1762473340   4% /
GAMESS temporary binary files will be written to /tmp
GAMESS supplementary output files will be written to /tmp
Copying input file b_atom_6_311g3df3pd_all.inp to your run's scratch directory...

 Distributed Data Interface kickoff program.
 Initiating 1 compute processes on 1 nodes to run the following command:
 /home/akroy/gamess/gamess.01.x b_atom_6_311g3df3pd_all 

          ******************************************************
          *         GAMESS VERSION = 30 SEP 2018 (R3)         *
          *             FROM IOWA STATE UNIVERSITY             *
          * M.W.SCHMIDT, K.K.BALDRIDGE, J.A.BOATZ, S.T.ELBERT, *
          *   M.S.GORDON, J.H.JENSEN, S.KOSEKI, N.MATSUNAGA,   *
          *          K.A.NGUYEN, S.J.SU, T.L.WINDUS,           *
          *       TOGETHER WITH M.DUPUIS, J.A.MONTGOMERY       *
          *         J.COMPUT.CHEM.  14, 1347-1363(1993)        *
          **************** 64 BIT LINUX VERSION ****************

  SINCE 1993, STUDENTS AND POSTDOCS WORKING AT IOWA STATE UNIVERSITY
  AND ALSO IN THEIR VARIOUS JOBS AFTER LEAVING ISU HAVE MADE IMPORTANT
  CONTRIBUTIONS TO THE CODE:
     IVANA ADAMOVIC, CHRISTINE AIKENS, YURI ALEXEEV, POOJA ARORA,
     ANDREY ASADCHEV, ROB BELL, PRADIPTA BANDYOPADHYAY, JONATHAN BENTZ,
     BRETT BODE, KURT BRORSEN, CALEB CARLIN, GALINA CHABAN, WEI CHEN,
     CHEOL HO CHOI, PAUL DAY, ALBERT DEFUSCO, NUWAN DESILVA, TIM DUDLEY,
     DMITRI FEDOROV, ALEX FINDLATER, GRAHAM FLETCHER, MARK FREITAG,
     KURT GLAESEMANN, ANASTASIA GUNINA,
     DAN KEMP, GRANT MERRILL, NORIYUKI MINEZAWA, JONATHAN MULLIN,
     TAKESHI NAGATA, SEAN NEDD, HEATHER NETZLOFF, BOSILJKA NJEGIC, RYAN OLSON,
     MIKE PAK, BUU PHAM,
     SPENCER PRUITT, LUKE ROSKOP, JIM SHOEMAKER, LYUDMILA SLIPCHENKO,
     TONY SMITH, SAROM SOK LEANG, JIE SONG, TETSUYA TAKETSUGU, SIMON WEBB,
     PENG XU, SOOHAENG YOO, FEDERICO ZAHARIEV

  ADDITIONAL CODE HAS BEEN PROVIDED BY COLLABORATORS IN OTHER GROUPS:
     IOWA STATE UNIVERSITY:
          JOE IVANIC, AARON WEST, LAIMUTIS BYTAUTAS, KLAUS RUEDENBERG
     UNIVERSITY OF TOKYO: KIMIHIKO HIRAO, TAKAHITO NAKAJIMA,
          TAKAO TSUNEDA, MUNEAKI KAMIYA, SUSUMU YANAGISAWA,
          KIYOSHI YAGI, MAHITO CHIBA, SEIKEN TOKURA, NAOAKI KAWAKAMI
     UNIVERSITY OF AARHUS: FRANK JENSEN
     UNIVERSITY OF IOWA: VISVALDAS KAIRYS, HUI LI
     NATIONAL INST. OF STANDARDS AND TECHNOLOGY: WALT STEVENS, DAVID GARMER
     UNIVERSITY OF PISA: BENEDETTA MENNUCCI, JACOPO TOMASI
     UNIVERSITY OF MEMPHIS: HENRY KURTZ, PRAKASHAN KORAMBATH
     UNIVERSITY OF ALBERTA: TOBY ZENG, MARIUSZ KLOBUKOWSKI
     UNIVERSITY OF NEW ENGLAND: MARK SPACKMAN
     MIE UNIVERSITY: HIROAKI UMEDA
     NAT. INST. OF ADVANCED INDUSTRIAL SCIENCE AND TECHNOLOGY: KAZUO KITAURA
     MICHIGAN STATE UNIVERSITY:
          KAROL KOWALSKI, MARTA WLOCH, JEFFREY GOUR, JESSE LUTZ,
          WEI LI, JUN SHEN, J. EMILIANO DEUSTUA, PIOTR PIECUCH
     UNIVERSITY OF MINNESOTA:
          YINAN SHU
     UNIVERSITY OF SILESIA: MONIKA MUSIAL, STANISLAW KUCHARSKI
     FACULTES UNIVERSITAIRES NOTRE-DAME DE LA PAIX:
          OLIVIER QUINET, BENOIT CHAMPAGNE
     UNIVERSITY OF CALIFORNIA - SANTA BARBARA: BERNARD KIRTMAN
     INSTITUTE FOR MOLECULAR SCIENCE:
          KAZUYA ISHIMURA, MICHIO KATOUDA, AND SHIGERU NAGASE
     UNIVERSITY OF NOTRE DAME: ANNA POMOGAEVA, DAN CHIPMAN
     KYUSHU UNIVERSITY:
          HARUYUKI NAKANO,
          FENG LONG GU, JACEK KORCHOWIEC, MARCIN MAKOWSKI, AND YURIKO AOKI,
          HIROTOSHI MORI AND EISAKU MIYOSHI
     PENNSYLVANIA STATE UNIVERSITY:
          TZVETELIN IORDANOV, CHET SWALINA, JONATHAN SKONE,
          SHARON HAMMES-SCHIFFER
     WASEDA UNIVERSITY:
          MASATO KOBAYASHI, TOMOKO AKAMA, TSUGUKI TOUMA,
          TAKESHI YOSHIKAWA, YASUHIRO IKABATA, JUNJI SEINO,
          YUYA NAKAJIMA, HIROMI NAKAI
     NANJING UNIVERSITY: SHUHUA LI
     UNIVERSITY OF NEBRASKA:
          PEIFENG SU, DEJUN SI, NANDUN THELLAMUREGE, YALI WANG, HUI LI
     UNIVERSITY OF ZURICH: ROBERTO PEVERATI, KIM BALDRIDGE
     N. COPERNICUS UNIVERSITY AND JACKSON STATE UNIVERSITY:
          MARIA BARYSZ
     UNIVERSITY OF COPENHAGEN: Jimmy Kromann, CASPER STEINMANN
     TOKYO INSTITUTE OF TECHNOLOGY: HIROYA NAKATA
     NAGOYA UNIVERSITY: YOSHIO NISHIMOTO, STEPHAN IRLE
     MOSCOW STATE UNIVERSITY: VLADIMIR MIRONOV

 EXECUTION OF GAMESS BEGUN Thu Jun 13 17:32:55 2019

            ECHO OF THE FIRST FEW INPUT CARDS -
 INPUT CARD> $CONTRL SCFTYP=UHF COORD=CART MULT=2 RUNTYP=ENERGY  $END                       
 INPUT CARD> $SYSTEM TIMLIM=2000 $END                                                       
 INPUT CARD> $DFT METHOD=GRID DFTTYP=NONE $END                                              
 INPUT CARD> $BASIS EXTFIL=.TRUE. GBASIS=6311G3DF $END                                      
 INPUT CARD> $GUESS GUESS=HUCKEL $END                                                       
 INPUT CARD> $DATA                                                                          
 INPUT CARD>B                                                                               
 INPUT CARD>C1                                                                              
 INPUT CARD>B   5.0   0.0000   0.0000   0.0000                                              
 INPUT CARD> $END                                                                           
 INPUT CARD>                                                                                
    1000000 WORDS OF MEMORY AVAILABLE


                    * * * WARNING * * *
 OLD KEYWORD COORD=CART SELECTED, AUTOMATICALLY CHANGED TO COORD=PRINAXIS.
 YOUR MOLECULE'S COORDINATES WILL BE CHANGED TO PRINCIPAL AXES BY
   A) TRANSLATION TO THE CENTER OF MASS, THEN
   B) ROTATION TO HAVE A DIAGONAL MOMENT OF INERTIA TENSOR.

 HOWEVER, NOTHING ELSE IN YOUR INPUT WILL BE ROTATED IN THE SAME WAY,
 SO IF YOU HAVE A $VEC, $VIB, $GRAD, $HESS, EFP PARTICLE COORDINATES,
 OR ANYTHING ELSE THAT DEPENDS ON THE INITIAL ORIENTATION, THAT DATA
 WILL NOT BE USED CORRECTLY IN THIS RUN.

 THE PURPOSE OF COORD=PRINAXIS IS TO BE USED ONCE, ONLY AT THE VERY
 BEGINNING OF A SERIES OF COMPUTATIONS, PERHAPS TO FIND THE SYMMETRY
 UNIQUE ATOMS FROM AN ARBITRARY INITIAL ORIENTATION.

 AFTER THE FIRST RUN, YOU SHOULD USE ONLY COORD=UNIQUE, TO ENSURE THAT
 THE COORDINATES WHICH YOU READ IN ARE THE COORDINATES THAT ARE USED.


     $BASIS REQUESTS READING THE "6311G3DF" BASIS SET FROM AN EXTERNAL FILE


     RUN TITLE
     ---------
 B                                                                               

 THE POINT GROUP OF THE MOLECULE IS C1      
 THE ORDER OF THE PRINCIPAL AXIS IS     0

 THE MOMENTS OF INERTIA ARE (AMU-ANGSTROM**2)
 IXX=     0.000   IYY=     0.000   IZZ=     0.000

 THE EXTERNAL BASIS SET FILE BEING READ IS
     "/home/akroy/gamess/EXTFILE.txt"

 ATOM      ATOMIC                      COORDINATES (BOHR)
           CHARGE         X                   Y                   Z
 B           5.0     0.0000000000        0.0000000000        0.0000000000

          INTERNUCLEAR DISTANCES (ANGS.)
          ------------------------------

                1 B     

   1 B       0.0000000  

  * ... LESS THAN  3.000


     ATOMIC BASIS SET
     ----------------
 THE CONTRACTED PRIMITIVE FUNCTIONS HAVE BEEN UNNORMALIZED
 THE CONTRACTED BASIS FUNCTIONS ARE NOW NORMALIZED TO UNITY

  SHELL TYPE  PRIMITIVE        EXPONENT          CONTRACTION COEFFICIENT(S)

 B         

      1   S       1          2858.8900000    0.002153749067
      1   S       2           428.1400000    0.016582292818
      1   S       3            97.5282000    0.082186964406
      1   S       4            27.9693000    0.276617880201
      1   S       5             8.2157700    0.629315727452
      1   S       6             1.1127800    0.173769924743

      2   L       7            13.2415000    0.117442942252    0.041809998866
      2   L       8             3.0016600    0.918001548610    0.236574993582
      2   L       9             0.9128560   -0.002651048696    0.816213977857

      3   L      10             0.3154540    1.000000000000    1.000000000000

      4   L      11             0.0988563    1.000000000000    1.000000000000

      5   L      12             0.0315000    1.000000000000    1.000000000000

      6   D      13             1.6040000    1.000000000000

      7   D      14             0.4010000    1.000000000000

      8   D      15             0.1002500    1.000000000000

      9   F      16             0.5000000    1.000000000000

 TOTAL NUMBER OF BASIS SET SHELLS             =    9
 NUMBER OF CARTESIAN GAUSSIAN BASIS FUNCTIONS =   45
 NUMBER OF ELECTRONS                          =    5
 CHARGE OF MOLECULE                           =    0
 SPIN MULTIPLICITY                            =    2
 NUMBER OF OCCUPIED ORBITALS (ALPHA)          =    3
 NUMBER OF OCCUPIED ORBITALS (BETA )          =    2
 TOTAL NUMBER OF ATOMS                        =    1
 THE NUCLEAR REPULSION ENERGY IS        0.0000000000

 THIS MOLECULE IS RECOGNIZED AS BEING LINEAR,
 ORBITAL LZ DEGENERACY TOLERANCE ETOLLZ= 1.00E-06

     $CONTRL OPTIONS
     ---------------
 SCFTYP=UHF          RUNTYP=ENERGY       EXETYP=RUN     
 MPLEVL=       0     CITYP =NONE         CCTYP =NONE         VBTYP =NONE    
 DFTTYP=NONE         TDDFT =NONE    
 MULT  =       2     ICHARG=       0     NZVAR =       0     COORD =PRINAXIS
 PP    =NONE         RELWFN=NONE         LOCAL =NONE         NUMGRD=       F
 ISPHER=      -1     NOSYM =       0     MAXIT =      30     UNITS =ANGS    
 PLTORB=       F     MOLPLT=       F     AIMPAC=       F     FRIEND=        
 NPRINT=       7     IREST =       0     GEOM  =INPUT   
 NORMF =       0     NORMP =       0     ITOL  =      20     ICUT  =       9
 INTTYP=BEST         GRDTYP=BEST         QMTTOL= 1.0E-06

     $SYSTEM OPTIONS
     ---------------
  REPLICATED MEMORY=     1000000 WORDS (ON EVERY NODE).
 DISTRIBUTED MEMDDI=           0 MILLION WORDS IN AGGREGATE,
 MEMDDI DISTRIBUTED OVER   1 PROCESSORS IS           0 WORDS/PROCESSOR.
 TOTAL MEMORY REQUESTED ON EACH PROCESSOR=     1000000 WORDS.
 TIMLIM=        2000.00 MINUTES, OR       1.4 DAYS.
 PARALL= F  BALTYP=  DLB     KDIAG=    0  COREFL= F
 MXSEQ2=     300 MXSEQ3=     150  mem10=         0

          ----------------
          PROPERTIES INPUT
          ----------------

     MOMENTS            FIELD           POTENTIAL          DENSITY
 IEMOM =       1   IEFLD =       0   IEPOT =       0   IEDEN =       0
 WHERE =COMASS     WHERE =NUCLEI     WHERE =NUCLEI     WHERE =NUCLEI  
 OUTPUT=BOTH       OUTPUT=BOTH       OUTPUT=BOTH       OUTPUT=BOTH    
 IEMINT=       0   IEFINT=       0                     IEDINT=       0
                                                       MORB  =       0
          EXTRAPOLATION IN EFFECT
          SOSCF IN EFFECT
          DIIS or SOSCF will be reset if energy rises
 ORBITAL PRINTING OPTION: NPREO=     1    45     2     1

     -------------------------------
     INTEGRAL TRANSFORMATION OPTIONS
     -------------------------------
     NWORD  =            0
     CUTOFF = 1.0E-09     MPTRAN =       0
     DIRTRF =       F     AOINTS =DUP     

          ----------------------
          INTEGRAL INPUT OPTIONS
          ----------------------
 NOPK  =       1 NORDER=       0 SCHWRZ=       F

     ------------------------------------------
     THE POINT GROUP IS C1 , NAXIS= 0, ORDER= 1
     ------------------------------------------

     DIMENSIONS OF THE SYMMETRY SUBSPACES ARE
 A   =   45

 ..... DONE SETTING UP THE RUN .....
 STEP CPU TIME =     0.00 TOTAL CPU TIME =          0.0 (      0.0 MIN)
 TOTAL WALL CLOCK TIME=          0.0 SECONDS, CPU UTILIZATION IS     0.00%

          ********************
          1 ELECTRON INTEGRALS
          ********************
 ...... END OF ONE-ELECTRON INTEGRALS ......
 STEP CPU TIME =     0.00 TOTAL CPU TIME =          0.0 (      0.0 MIN)
 TOTAL WALL CLOCK TIME=          0.0 SECONDS, CPU UTILIZATION IS     0.00%

          -------------
          GUESS OPTIONS
          -------------
          GUESS =HUCKEL            NORB  =       0          NORDER=       0
          MIX   =       F          PRTMO =       F          PUNMO =       F
          TOLZ  = 1.0E-08          TOLE  = 1.0E-05
          SYMDEN=       F          PURIFY=       F

 INITIAL GUESS ORBITALS GENERATED BY HUCKEL   ROUTINE.
 HUCKEL GUESS REQUIRES     15798 WORDS.

 SYMMETRIES FOR INITIAL GUESS ORBITALS FOLLOW.  ALPHA SET(S).
     3 ORBITALS ARE OCCUPIED (    1 CORE ORBITALS).
     2=A        3=A        4=A        5=A        6=A        7=A        8=A   
     9=A       10=A       11=A       12=A       13=A   

 SYMMETRIES FOR INITIAL GUESS ORBITALS FOLLOW.   BETA SET(S).
     2 ORBITALS ARE OCCUPIED (    1 CORE ORBITALS).
     2=A        3=A        4=A        5=A        6=A        7=A        8=A   
     9=A       10=A       11=A       12=A   
 ...... END OF INITIAL ORBITAL SELECTION ......
 STEP CPU TIME =     0.00 TOTAL CPU TIME =          0.0 (      0.0 MIN)
 TOTAL WALL CLOCK TIME=          0.0 SECONDS, CPU UTILIZATION IS     0.00%

                    ----------------------
                    AO INTEGRAL TECHNOLOGY
                    ----------------------
     S,P,L SHELL ROTATED AXIS INTEGRALS, REPROGRAMMED BY
        KAZUYA ISHIMURA (IMS) AND JOSE SIERRA (SYNSTAR).
     S,P,D,L SHELL ROTATED AXIS INTEGRALS PROGRAMMED BY
        KAZUYA ISHIMURA (INSTITUTE FOR MOLECULAR SCIENCE).
     S,P,D,F,G SHELL TO TOTAL QUARTET ANGULAR MOMENTUM SUM 5,
        ERIC PROGRAM BY GRAHAM FLETCHER (ELORET AND NASA ADVANCED
        SUPERCOMPUTING DIVISION, AMES RESEARCH CENTER).
     S,P,D,F,G,L SHELL GENERAL RYS QUADRATURE PROGRAMMED BY
        MICHEL DUPUIS (PACIFIC NORTHWEST NATIONAL LABORATORY).

          --------------------
          2 ELECTRON INTEGRALS
          --------------------

 THE -PK- OPTION IS OFF, THE INTEGRALS ARE NOT IN SUPERMATRIX FORM.
 STORING   15000 INTEGRALS/RECORD ON DISK, USING 12 BYTES/INTEGRAL.
 TWO ELECTRON INTEGRAL EVALUATION REQUIRES   99145 WORDS OF MEMORY.
 II,JST,KST,LST =  1  1  1  1 NREC =         1 INTLOC =    1
 II,JST,KST,LST =  2  1  1  1 NREC =         1 INTLOC =    2
 II,JST,KST,LST =  3  1  1  1 NREC =         1 INTLOC =   34
 II,JST,KST,LST =  4  1  1  1 NREC =         1 INTLOC =  214
 II,JST,KST,LST =  5  1  1  1 NREC =         1 INTLOC =  776
 II,JST,KST,LST =  6  1  1  1 NREC =         1 INTLOC = 2074
 II,JST,KST,LST =  7  1  1  1 NREC =         1 INTLOC = 5929
 II,JST,KST,LST =  8  1  1  1 NREC =         1 INTLOC =14065
 II,JST,KST,LST =  9  1  1  1 NREC =         2 INTLOC =14002
 TOTAL NUMBER OF NONZERO TWO-ELECTRON INTEGRALS =               72961
          5 INTEGRAL RECORDS WERE STORED ON DISK FILE  8.
  ...... END OF TWO-ELECTRON INTEGRALS .....
 STEP CPU TIME =     0.03 TOTAL CPU TIME =          0.0 (      0.0 MIN)
 TOTAL WALL CLOCK TIME=          0.0 SECONDS, CPU UTILIZATION IS   100.00%

          ---------------------------
                  UHF SCF CALCULATION
          ---------------------------

     NUCLEAR ENERGY =         0.0000000000
     MAXIT = 30     NPUNCH=  2     MULT=  2
     EXTRAP=T  DAMP=F  SHIFT=F  RSTRCT=F  DIIS=F  SOSCF=T
     DENSITY MATRIX CONV=  1.00E-05
     SOSCF WILL OPTIMIZE     126 ALPHA AND      86 BETA ROTATION ANGLES.
     SOGTOL= 2.500E-01
     MEMORY REQUIRED FOR UHF/ROHF ITERS=     52454 WORDS.

 ITER EX      TOTAL ENERGY        E CHANGE  DENSITY CHANGE    ORB. GRAD 
   1  0      -24.4603730043   -24.4603730043   0.442129324   0.000000000
          ---------------START SECOND ORDER SCF---------------
   2  1      -24.5303181256    -0.0699451213   0.037970664   0.023793586
   3  2      -24.5312457701    -0.0009276445   0.005704070   0.003451971
   4  3      -24.5313139912    -0.0000682211   0.001452894   0.000895353
   5  4      -24.5313159659    -0.0000019747   0.000594351   0.000182102
   6  5      -24.5313161243    -0.0000001584   0.000161824   0.000035902
   7  6      -24.5313161359    -0.0000000116   0.000094841   0.000018606
   8  7      -24.5313161383    -0.0000000025   0.000016844   0.000005090
   9  8      -24.5313161384    -0.0000000001   0.000004250   0.000001408
  10  9      -24.5313161384    -0.0000000000   0.000000663   0.000000197

          -----------------
          DENSITY CONVERGED
          -----------------
     TIME TO FORM FOCK OPERATORS=       0.0 SECONDS (       0.0 SEC/ITER)
     TIME TO SOLVE SCF EQUATIONS=       0.0 SECONDS (       0.0 SEC/ITER)

 FINAL UHF ENERGY IS      -24.5313161384 AFTER  10 ITERATIONS

          --------------------
          SPIN SZ   =    0.500
          S-SQUARED =    0.761
          --------------------

 LZ VALUE ANALYSIS FOR THE MOS
 ----------------------------------------
 MO     1 (    1) HAS LZ(WEIGHT)= 0.00(100.0%) 
 MO     2 (    2) HAS LZ(WEIGHT)= 0.00(100.0%) 
 MO     3 (    3) HAS LZ(WEIGHT)= 0.00(100.0%) 
 MO     4 (    4) HAS LZ(WEIGHT)= 0.00(100.0%) 
 MO     5 (    4) HAS LZ(WEIGHT)= 0.00(100.0%) 
 MO     6 (    5) HAS LZ(WEIGHT)= 0.00(100.0%) 
 MO     7 (    6) HAS LZ(WEIGHT)= 0.00(100.0%) 
 MO     8 (    7) HAS LZ(WEIGHT)= 0.00(100.0%) 
 MO     9 (    7) HAS LZ(WEIGHT)= 0.00(100.0%) 
 MO    10 (    8) HAS LZ(WEIGHT)= 0.00(100.0%) 
 MO    11 (    9) HAS LZ(WEIGHT)= 0.00(100.0%) 
 MO    12 (    9) HAS LZ(WEIGHT)= 0.00(100.0%) 
 MO    13 (   10) HAS LZ(WEIGHT)= 0.00(100.0%) 
 MO    14 (   11) HAS LZ(WEIGHT)= 0.00(100.0%) 
 MO    15 (   11) HAS LZ(WEIGHT)= 0.00(100.0%) 
 MO    16 (   12) HAS LZ(WEIGHT)= 0.00(100.0%) 
 MO    17 (   13) HAS LZ(WEIGHT)= 0.00(100.0%) 
 MO    18 (   13) HAS LZ(WEIGHT)= 0.00(100.0%) 
 MO    19 (   14) HAS LZ(WEIGHT)= 0.00(100.0%) 
 MO    20 (   15) HAS LZ(WEIGHT)= 0.00(100.0%) 
 MO    21 (   16) HAS LZ(WEIGHT)= 0.00(100.0%) 
 MO    22 (   16) HAS LZ(WEIGHT)= 0.00(100.0%) 
 MO    23 (   17) HAS LZ(WEIGHT)= 0.00(100.0%) 
 MO    24 (   17) HAS LZ(WEIGHT)= 0.00(100.0%) 
 MO    25 (   18) HAS LZ(WEIGHT)= 0.00(100.0%) 
 MO    26 (   18) HAS LZ(WEIGHT)= 0.00(100.0%) 
 MO    27 (   19) HAS LZ(WEIGHT)= 0.00(100.0%) 
 MO    28 (   19) HAS LZ(WEIGHT)= 0.00(100.0%) 
 MO    29 (   20) HAS LZ(WEIGHT)= 0.00(100.0%) 
 MO    30 (   21) HAS LZ(WEIGHT)=-0.00( 50.0%)  0.00( 50.0%) 
 MO    31 (   21) HAS LZ(WEIGHT)=-0.00( 50.0%)  0.00( 50.0%) 
 MO    32 (   22) HAS LZ(WEIGHT)= 0.00(100.0%) 
 MO    33 (   23) HAS LZ(WEIGHT)= 0.00(100.0%) 
 MO    34 (   23) HAS LZ(WEIGHT)= 0.00(100.0%) 
 MO    35 (   24) HAS LZ(WEIGHT)= 0.00(100.0%) 
 MO    36 (   25) HAS LZ(WEIGHT)= 0.00(100.0%) 
 MO    37 (   25) HAS LZ(WEIGHT)= 0.00(100.0%) 
 MO    38 (   26) HAS LZ(WEIGHT)= 0.00(100.0%) 
 MO    39 (   26) HAS LZ(WEIGHT)= 0.00(100.0%) 
 MO    40 (   27) HAS LZ(WEIGHT)= 0.00(100.0%) 
 MO    41 (   28) HAS LZ(WEIGHT)= 0.00(100.0%) 
 MO    42 (   29) HAS LZ(WEIGHT)=-0.00( 50.0%)  0.00( 50.0%) 
 MO    43 (   29) HAS LZ(WEIGHT)=-0.00( 50.0%)  0.00( 50.0%) 
 MO    44 (   30) HAS LZ(WEIGHT)= 0.00(100.0%) 
 MO    45 (   31) HAS LZ(WEIGHT)= 0.00(100.0%) 

  ----- ALPHA SET ----- 

          ------------
          EIGENVECTORS
          ------------

                      1          2          3          4          5
                   -7.7014    -0.5454    -0.3184     0.0298     0.0298
                     A          A          A          A          A   
    1  B  1  S    0.578607  -0.120160   0.000000  -0.000000  -0.000000
    2  B  1  S    0.459070  -0.209838   0.000000  -0.000000  -0.000000
    3  B  1  X   -0.000000  -0.000000   0.269804  -0.000000  -0.000000
    4  B  1  Y   -0.000000  -0.000000   0.000000   0.107392  -0.074542
    5  B  1  Z   -0.000000  -0.000000   0.000000   0.074542   0.107392
    6  B  1  S   -0.007013   0.578949   0.000000  -0.000000  -0.000000
    7  B  1  X   -0.000000  -0.000000   0.442082  -0.000000  -0.000000
    8  B  1  Y   -0.000000  -0.000000   0.000000   0.182163  -0.126441
    9  B  1  Z   -0.000000  -0.000000   0.000000   0.126441   0.182163
   10  B  1  S   -0.000989   0.592441   0.000000  -0.000000  -0.000000
   11  B  1  X   -0.000000  -0.000000   0.445485  -0.000000  -0.000000
   12  B  1  Y   -0.000000  -0.000000   0.000000   0.187809  -0.130360
   13  B  1  Z   -0.000000  -0.000000   0.000000   0.130360   0.187809
   14  B  1  S   -0.000157   0.039891   0.000000  -0.000000  -0.000000
   15  B  1  X   -0.000000  -0.000000   0.037011  -0.000000  -0.000000
   16  B  1  Y   -0.000000  -0.000000   0.000000   0.550268  -0.381946
   17  B  1  Z   -0.000000  -0.000000   0.000000   0.381946   0.550268
   18  B  1 XX    0.002498  -0.000708   0.000000  -0.000000  -0.000000
   19  B  1 YY    0.001485  -0.008219   0.000000  -0.000000  -0.000000
   20  B  1 ZZ    0.001485  -0.008219   0.000000  -0.000000  -0.000000
   21  B  1 XY   -0.000000  -0.000000   0.000000  -0.000000  -0.000000
   22  B  1 XZ   -0.000000  -0.000000   0.000000  -0.000000  -0.000000
   23  B  1 YZ   -0.000000  -0.000000   0.000000  -0.000000  -0.000000
   24  B  1 XX    0.003528   0.019310   0.000000  -0.000000  -0.000000
   25  B  1 YY    0.001974  -0.029788   0.000000  -0.000000  -0.000000
   26  B  1 ZZ    0.001974  -0.029788   0.000000  -0.000000  -0.000000
   27  B  1 XY   -0.000000  -0.000000   0.000000  -0.000000  -0.000000
   28  B  1 XZ   -0.000000  -0.000000   0.000000  -0.000000  -0.000000
   29  B  1 YZ   -0.000000  -0.000000   0.000000  -0.000000  -0.000000
   30  B  1 XX    0.000314  -0.005286   0.000000  -0.000000  -0.000000
   31  B  1 YY    0.000287  -0.049211   0.000000  -0.000000  -0.000000
   32  B  1 ZZ    0.000287  -0.049211   0.000000  -0.000000  -0.000000
   33  B  1 XY   -0.000000  -0.000000   0.000000  -0.000000  -0.000000
   34  B  1 XZ   -0.000000  -0.000000   0.000000  -0.000000  -0.000000
   35  B  1 YZ   -0.000000  -0.000000   0.000000  -0.000000  -0.000000
   36  B  1 XXX  -0.000000  -0.000000   0.011398  -0.000000  -0.000000
   37  B  1 YYY  -0.000000  -0.000000   0.000000   0.007762  -0.005387
   38  B  1 ZZZ  -0.000000  -0.000000   0.000000   0.005387   0.007762
   39  B  1 XXY  -0.000000  -0.000000   0.000000   0.005181  -0.003596
   40  B  1 XXZ  -0.000000  -0.000000   0.000000   0.003596   0.005181
   41  B  1 YYX  -0.000000  -0.000000   0.002401  -0.000000  -0.000000
   42  B  1 YYZ  -0.000000  -0.000000   0.000000   0.002409   0.003471
   43  B  1 ZZX  -0.000000  -0.000000   0.002401  -0.000000  -0.000000
   44  B  1 ZZY  -0.000000  -0.000000   0.000000   0.003471  -0.002409
   45  B  1 XYZ  -0.000000  -0.000000   0.000000  -0.000000  -0.000000

                      6          7          8          9         10
                    0.0588     0.0918     0.1261     0.1261     0.2886
                     A          A          A          A          A   
    1  B  1  S    0.033130  -0.000000  -0.000000   0.000000  -0.035093
    2  B  1  S   -0.000066  -0.000000  -0.000000   0.000000  -0.232977
    3  B  1  X    0.000000  -0.096374  -0.000000   0.000000   0.000000
    4  B  1  Y    0.000000  -0.000000   0.073026  -0.164504   0.000000
    5  B  1  Z    0.000000  -0.000000  -0.164504  -0.073026   0.000000
    6  B  1  S   -0.302175  -0.000000  -0.000000   0.000000  -0.173498
    7  B  1  X    0.000000  -0.060382  -0.000000   0.000000   0.000000
    8  B  1  Y    0.000000  -0.000000   0.063584  -0.143233   0.000000
    9  B  1  Z    0.000000  -0.000000  -0.143233  -0.063584   0.000000
   10  B  1  S   -0.164697  -0.000000  -0.000000   0.000000   2.012938
   11  B  1  X    0.000000  -0.572999  -0.000000   0.000000   0.000000
   12  B  1  Y    0.000000  -0.000000   0.388585  -0.875353   0.000000
   13  B  1  Z    0.000000  -0.000000  -0.875353  -0.388585   0.000000
   14  B  1  S    2.295871  -0.000000  -0.000000   0.000000   2.161717
   15  B  1  X    0.000000   1.274874  -0.000000   0.000000   0.000000
   16  B  1  Y    0.000000  -0.000000  -0.459477   1.035050   0.000000
   17  B  1  Z    0.000000  -0.000000   1.035050   0.459477   0.000000
   18  B  1 XX   -0.036657  -0.000000  -0.000000   0.000000  -0.096756
   19  B  1 YY   -0.035062  -0.000000  -0.000000   0.000000  -0.109166
   20  B  1 ZZ   -0.035062  -0.000000  -0.000000   0.000000  -0.109166
   21  B  1 XY    0.000000  -0.000000  -0.000000   0.000000   0.000000
   22  B  1 XZ    0.000000  -0.000000  -0.000000   0.000000   0.000000
   23  B  1 YZ    0.000000  -0.000000  -0.000000   0.000000   0.000000
   24  B  1 XX   -0.142174  -0.000000  -0.000000   0.000000  -0.422661
   25  B  1 YY   -0.140793  -0.000000  -0.000000   0.000000  -0.411815
   26  B  1 ZZ   -0.140793  -0.000000  -0.000000   0.000000  -0.411815
   27  B  1 XY    0.000000  -0.000000  -0.000000   0.000000   0.000000
   28  B  1 XZ    0.000000  -0.000000  -0.000000   0.000000   0.000000
   29  B  1 YZ    0.000000  -0.000000  -0.000000   0.000000   0.000000
   30  B  1 XX   -0.566919  -0.000000  -0.000000   0.000000  -1.222020
   31  B  1 YY   -0.550049  -0.000000  -0.000000   0.000000  -1.838021
   32  B  1 ZZ   -0.550049  -0.000000  -0.000000   0.000000  -1.838021
   33  B  1 XY    0.000000  -0.000000  -0.000000   0.000000   0.000000
   34  B  1 XZ    0.000000  -0.000000  -0.000000   0.000000   0.000000
   35  B  1 YZ    0.000000  -0.000000  -0.000000   0.000000   0.000000
   36  B  1 XXX   0.000000   0.001797  -0.000000   0.000000   0.000000
   37  B  1 YYY   0.000000  -0.000000   0.002069  -0.004662   0.000000
   38  B  1 ZZZ   0.000000  -0.000000  -0.004662  -0.002069   0.000000
   39  B  1 XXY   0.000000  -0.000000   0.001432  -0.003226   0.000000
   40  B  1 XXZ   0.000000  -0.000000  -0.003226  -0.001432   0.000000
   41  B  1 YYX   0.000000   0.000726  -0.000000   0.000000   0.000000
   42  B  1 YYZ   0.000000  -0.000000  -0.002085  -0.000925   0.000000
   43  B  1 ZZX   0.000000   0.000726  -0.000000   0.000000   0.000000
   44  B  1 ZZY   0.000000  -0.000000   0.000925  -0.002085   0.000000
   45  B  1 XYZ   0.000000  -0.000000  -0.000000   0.000000   0.000000

                     11         12         13         14         15
                    0.2986     0.2986     0.3001     0.3030     0.3030
                     A          A          A          A          A   
    1  B  1  S   -0.000000   0.000000   0.021460   0.000000   0.000000
    2  B  1  S   -0.000000   0.000000   0.116266   0.000000   0.000000
    3  B  1  X   -0.000000   0.000000  -0.000000   0.000000   0.000000
    4  B  1  Y   -0.000000   0.000000  -0.000000   0.000000   0.000000
    5  B  1  Z   -0.000000   0.000000  -0.000000   0.000000   0.000000
    6  B  1  S   -0.000000   0.000000   0.049933   0.000000   0.000000
    7  B  1  X   -0.000000   0.000000  -0.000000   0.000000   0.000000
    8  B  1  Y   -0.000000   0.000000  -0.000000   0.000000   0.000000
    9  B  1  Z   -0.000000   0.000000  -0.000000   0.000000   0.000000
   10  B  1  S   -0.000000   0.000000  -0.964046   0.000000   0.000000
   11  B  1  X   -0.000000   0.000000  -0.000000   0.000000   0.000000
   12  B  1  Y   -0.000000   0.000000  -0.000000   0.000000   0.000000
   13  B  1  Z   -0.000000   0.000000  -0.000000   0.000000   0.000000
   14  B  1  S   -0.000000   0.000000  -0.945744   0.000000   0.000000
   15  B  1  X   -0.000000   0.000000  -0.000000   0.000000   0.000000
   16  B  1  Y   -0.000000   0.000000  -0.000000   0.000000   0.000000
   17  B  1  Z   -0.000000   0.000000  -0.000000   0.000000   0.000000
   18  B  1 XX   -0.000000   0.000000   0.063190   0.000000   0.000000
   19  B  1 YY   -0.000000   0.000000   0.040658  -0.000867   0.014104
   20  B  1 ZZ   -0.000000   0.000000   0.040658   0.000867  -0.014104
   21  B  1 XY   -0.009333   0.014274  -0.000000   0.000000   0.000000
   22  B  1 XZ    0.014274   0.009333  -0.000000   0.000000   0.000000
   23  B  1 YZ   -0.000000   0.000000  -0.000000   0.016286   0.001001
   24  B  1 XX   -0.000000   0.000000   0.171210   0.000000   0.000000
   25  B  1 YY   -0.000000   0.000000   0.202865   0.002366  -0.038479
   26  B  1 ZZ   -0.000000   0.000000   0.202865  -0.002366   0.038479
   27  B  1 XY    0.014362  -0.021965  -0.000000   0.000000   0.000000
   28  B  1 XZ   -0.021965  -0.014362  -0.000000   0.000000   0.000000
   29  B  1 YZ   -0.000000   0.000000  -0.000000  -0.044431  -0.002732
   30  B  1 XX   -0.000000   0.000000   1.654821   0.000000   0.000000
   31  B  1 YY   -0.000000   0.000000   0.274459  -0.054140   0.880481
   32  B  1 ZZ   -0.000000   0.000000   0.274459   0.054140  -0.880481
   33  B  1 XY   -0.553030   0.845822  -0.000000   0.000000   0.000000
   34  B  1 XZ    0.845822   0.553030  -0.000000   0.000000   0.000000
   35  B  1 YZ   -0.000000   0.000000  -0.000000   1.016692   0.062516
   36  B  1 XXX  -0.000000   0.000000  -0.000000   0.000000   0.000000
   37  B  1 YYY  -0.000000   0.000000  -0.000000   0.000000   0.000000
   38  B  1 ZZZ  -0.000000   0.000000  -0.000000   0.000000   0.000000
   39  B  1 XXY  -0.000000   0.000000  -0.000000   0.000000   0.000000
   40  B  1 XXZ  -0.000000   0.000000  -0.000000   0.000000   0.000000
   41  B  1 YYX  -0.000000   0.000000  -0.000000   0.000000   0.000000
   42  B  1 YYZ  -0.000000   0.000000  -0.000000   0.000000   0.000000
   43  B  1 ZZX  -0.000000   0.000000  -0.000000   0.000000   0.000000
   44  B  1 ZZY  -0.000000   0.000000  -0.000000   0.000000   0.000000
   45  B  1 XYZ  -0.000000   0.000000  -0.000000   0.000000   0.000000

                     16         17         18         19         20
                    0.4918     0.5369     0.5369     0.8569     1.1811
                     A          A          A          A          A   
    1  B  1  S   -0.000000   0.000000   0.000000   0.145388   0.005167
    2  B  1  S   -0.000000   0.000000   0.000000  -0.191859  -0.007158
    3  B  1  X   -0.232342   0.000000   0.000000   0.000000  -0.000000
    4  B  1  Y   -0.000000   0.017914  -0.257625   0.000000  -0.000000
    5  B  1  Z   -0.000000  -0.257625  -0.017914   0.000000  -0.000000
    6  B  1  S   -0.000000   0.000000   0.000000  -2.502452  -0.033113
    7  B  1  X   -0.910811   0.000000   0.000000   0.000000  -0.000000
    8  B  1  Y   -0.000000   0.067853  -0.975817   0.000000  -0.000000
    9  B  1  Z   -0.000000  -0.975817  -0.067853   0.000000  -0.000000
   10  B  1  S   -0.000000   0.000000   0.000000   7.734149   0.156013
   11  B  1  X    1.695435   0.000000   0.000000   0.000000  -0.000000
   12  B  1  Y   -0.000000  -0.108956   1.566941   0.000000  -0.000000
   13  B  1  Z   -0.000000   1.566941   0.108956   0.000000  -0.000000
   14  B  1  S   -0.000000   0.000000   0.000000   1.627584   0.029983
   15  B  1  X   -0.713611   0.000000   0.000000   0.000000  -0.000000
   16  B  1  Y   -0.000000   0.044337  -0.637623   0.000000  -0.000000
   17  B  1  Z   -0.000000  -0.637623  -0.044337   0.000000  -0.000000
   18  B  1 XX   -0.000000   0.000000   0.000000  -0.281003  -0.021486
   19  B  1 YY   -0.000000   0.000000   0.000000  -0.280449  -0.003261
   20  B  1 ZZ   -0.000000   0.000000   0.000000  -0.280449  -0.003261
   21  B  1 XY   -0.000000   0.000000   0.000000   0.000000  -0.000000
   22  B  1 XZ   -0.000000   0.000000   0.000000   0.000000  -0.000000
   23  B  1 YZ   -0.000000   0.000000   0.000000   0.000000  -0.000000
   24  B  1 XX   -0.000000   0.000000   0.000000  -1.220373   1.086928
   25  B  1 YY   -0.000000   0.000000   0.000000  -1.193640  -0.608881
   26  B  1 ZZ   -0.000000   0.000000   0.000000  -1.193640  -0.608881
   27  B  1 XY   -0.000000   0.000000   0.000000   0.000000  -0.000000
   28  B  1 XZ   -0.000000   0.000000   0.000000   0.000000  -0.000000
   29  B  1 YZ   -0.000000   0.000000   0.000000   0.000000  -0.000000
   30  B  1 XX   -0.000000   0.000000   0.000000  -2.401029  -0.554571
   31  B  1 YY   -0.000000   0.000000   0.000000  -2.417021   0.205180
   32  B  1 ZZ   -0.000000   0.000000   0.000000  -2.417021   0.205180
   33  B  1 XY   -0.000000   0.000000   0.000000   0.000000  -0.000000
   34  B  1 XZ   -0.000000   0.000000   0.000000   0.000000  -0.000000
   35  B  1 YZ   -0.000000   0.000000   0.000000   0.000000  -0.000000
   36  B  1 XXX  -0.059143   0.000000   0.000000   0.000000  -0.000000
   37  B  1 YYY  -0.000000   0.005538  -0.079645   0.000000  -0.000000
   38  B  1 ZZZ  -0.000000  -0.079645  -0.005538   0.000000  -0.000000
   39  B  1 XXY  -0.000000   0.002491  -0.035827   0.000000  -0.000000
   40  B  1 XXZ  -0.000000  -0.035827  -0.002491   0.000000  -0.000000
   41  B  1 YYX  -0.026550   0.000000   0.000000   0.000000  -0.000000
   42  B  1 YYZ  -0.000000  -0.035618  -0.002477   0.000000  -0.000000
   43  B  1 ZZX  -0.026550   0.000000   0.000000   0.000000  -0.000000
   44  B  1 ZZY  -0.000000   0.002477  -0.035618   0.000000  -0.000000
   45  B  1 XYZ  -0.000000   0.000000   0.000000   0.000000  -0.000000

                     21         22         23         24         25
                    1.1853     1.1853     1.2005     1.2005     1.9519
                     A          A          A          A          A   
    1  B  1  S    0.000000   0.000000  -0.000000  -0.000000  -0.000000
    2  B  1  S    0.000000   0.000000  -0.000000  -0.000000  -0.000000
    3  B  1  X    0.000000   0.000000  -0.000000  -0.000000  -0.000000
    4  B  1  Y    0.000000   0.000000  -0.000000  -0.000000  -0.000000
    5  B  1  Z    0.000000   0.000000  -0.000000  -0.000000  -0.000000
    6  B  1  S    0.000000   0.000000  -0.000000  -0.000000  -0.000000
    7  B  1  X    0.000000   0.000000  -0.000000  -0.000000  -0.000000
    8  B  1  Y    0.000000   0.000000  -0.000000  -0.000000  -0.000000
    9  B  1  Z    0.000000   0.000000  -0.000000  -0.000000  -0.000000
   10  B  1  S    0.000000   0.000000  -0.000000  -0.000000  -0.000000
   11  B  1  X    0.000000   0.000000  -0.000000  -0.000000  -0.000000
   12  B  1  Y    0.000000   0.000000  -0.000000  -0.000000  -0.000000
   13  B  1  Z    0.000000   0.000000  -0.000000  -0.000000  -0.000000
   14  B  1  S    0.000000   0.000000  -0.000000  -0.000000  -0.000000
   15  B  1  X    0.000000   0.000000  -0.000000  -0.000000  -0.000000
   16  B  1  Y    0.000000   0.000000  -0.000000  -0.000000  -0.000000
   17  B  1  Z    0.000000   0.000000  -0.000000  -0.000000  -0.000000
   18  B  1 XX    0.000000   0.000000  -0.000000  -0.000000  -0.000000
   19  B  1 YY    0.000000   0.000000  -0.000531  -0.015050  -0.000000
   20  B  1 ZZ    0.000000   0.000000   0.000531   0.015050  -0.000000
   21  B  1 XY    0.005630  -0.012066  -0.000000  -0.000000  -0.000000
   22  B  1 XZ   -0.012066  -0.005630  -0.000000  -0.000000  -0.000000
   23  B  1 YZ    0.000000   0.000000  -0.017378   0.000613  -0.000000
   24  B  1 XX    0.000000   0.000000  -0.000000  -0.000000  -0.000000
   25  B  1 YY    0.000000   0.000000   0.034590   0.981061  -0.000000
   26  B  1 ZZ    0.000000   0.000000  -0.034590  -0.981061  -0.000000
   27  B  1 XY   -0.478563   1.025690  -0.000000  -0.000000  -0.000000
   28  B  1 XZ    1.025690   0.478563  -0.000000  -0.000000  -0.000000
   29  B  1 YZ    0.000000   0.000000   1.132831  -0.039941  -0.000000
   30  B  1 XX    0.000000   0.000000  -0.000000  -0.000000  -0.000000
   31  B  1 YY    0.000000   0.000000  -0.014827  -0.420515  -0.000000
   32  B  1 ZZ    0.000000   0.000000   0.014827   0.420515  -0.000000
   33  B  1 XY    0.212265  -0.454941  -0.000000  -0.000000  -0.000000
   34  B  1 XZ   -0.454941  -0.212265  -0.000000  -0.000000  -0.000000
   35  B  1 YZ    0.000000   0.000000  -0.485568   0.017120  -0.000000
   36  B  1 XXX   0.000000   0.000000  -0.000000  -0.000000  -0.000000
   37  B  1 YYY   0.000000   0.000000  -0.000000  -0.000000  -0.575184
   38  B  1 ZZZ   0.000000   0.000000  -0.000000  -0.000000  -0.542368
   39  B  1 XXY   0.000000   0.000000  -0.000000  -0.000000  -0.000000
   40  B  1 XXZ   0.000000   0.000000  -0.000000  -0.000000  -0.000000
   41  B  1 YYX   0.000000   0.000000  -0.000000  -0.000000  -0.000000
   42  B  1 YYZ   0.000000   0.000000  -0.000000  -0.000000   0.727663
   43  B  1 ZZX   0.000000   0.000000  -0.000000  -0.000000  -0.000000
   44  B  1 ZZY   0.000000   0.000000  -0.000000  -0.000000   0.771690
   45  B  1 XYZ   0.000000   0.000000  -0.000000  -0.000000  -0.000000

                     26         27         28         29         30
                    1.9519     1.9594     1.9594     1.9626     1.9628
                     A          A          A          A          A   
    1  B  1  S    0.000000  -0.000000   0.000000  -0.000000  -0.000000
    2  B  1  S    0.000000  -0.000000   0.000000  -0.000000  -0.000000
    3  B  1  X    0.000000  -0.000000   0.000000  -0.330092  -0.000000
    4  B  1  Y    0.000000  -0.000000   0.000000  -0.000000   0.130878
    5  B  1  Z    0.000000  -0.000000   0.000000  -0.000000   0.062659
    6  B  1  S    0.000000  -0.000000   0.000000  -0.000000  -0.000000
    7  B  1  X    0.000000  -0.000000   0.000000  -0.164370  -0.000000
    8  B  1  Y    0.000000  -0.000000   0.000000  -0.000000   0.083414
    9  B  1  Z    0.000000  -0.000000   0.000000  -0.000000   0.039935
   10  B  1  S    0.000000  -0.000000   0.000000  -0.000000  -0.000000
   11  B  1  X    0.000000  -0.000000   0.000000  -0.284647  -0.000000
   12  B  1  Y    0.000000  -0.000000   0.000000  -0.000000   0.109266
   13  B  1  Z    0.000000  -0.000000   0.000000  -0.000000   0.052312
   14  B  1  S    0.000000  -0.000000   0.000000  -0.000000  -0.000000
   15  B  1  X    0.000000  -0.000000   0.000000   0.100623  -0.000000
   16  B  1  Y    0.000000  -0.000000   0.000000  -0.000000  -0.039108
   17  B  1  Z    0.000000  -0.000000   0.000000  -0.000000  -0.018723
   18  B  1 XX    0.000000  -0.000000   0.000000  -0.000000  -0.000000
   19  B  1 YY    0.000000  -0.000000   0.000000  -0.000000  -0.000000
   20  B  1 ZZ    0.000000  -0.000000   0.000000  -0.000000  -0.000000
   21  B  1 XY    0.000000  -0.000000   0.000000  -0.000000  -0.000000
   22  B  1 XZ    0.000000  -0.000000   0.000000  -0.000000  -0.000000
   23  B  1 YZ    0.000000  -0.000000   0.000000  -0.000000  -0.000000
   24  B  1 XX    0.000000  -0.000000   0.000000  -0.000000  -0.000000
   25  B  1 YY    0.000000  -0.000000   0.000000  -0.000000  -0.000000
   26  B  1 ZZ    0.000000  -0.000000   0.000000  -0.000000  -0.000000
   27  B  1 XY    0.000000  -0.000000   0.000000  -0.000000  -0.000000
   28  B  1 XZ    0.000000  -0.000000   0.000000  -0.000000  -0.000000
   29  B  1 YZ    0.000000  -0.000000   0.000000  -0.000000  -0.000000
   30  B  1 XX    0.000000  -0.000000   0.000000  -0.000000  -0.000000
   31  B  1 YY    0.000000  -0.000000   0.000000  -0.000000  -0.000000
   32  B  1 ZZ    0.000000  -0.000000   0.000000  -0.000000  -0.000000
   33  B  1 XY    0.000000  -0.000000   0.000000  -0.000000  -0.000000
   34  B  1 XZ    0.000000  -0.000000   0.000000  -0.000000  -0.000000
   35  B  1 YZ    0.000000  -0.000000   0.000000  -0.000000  -0.000000
   36  B  1 XXX   0.000000  -0.000000   0.000000  -0.492331  -0.000000
   37  B  1 YYY   0.542368  -0.000000   0.000000  -0.000000  -0.721926
   38  B  1 ZZZ  -0.575184  -0.000000   0.000000   0.000000  -0.345627
   39  B  1 XXY   0.000000  -0.000000   0.000000  -0.000000   0.892942
   40  B  1 XXZ   0.000000  -0.000000   0.000000  -0.000000   0.427501
   41  B  1 YYX   0.000000  -0.009803  -0.865970   0.807259   0.000000
   42  B  1 YYZ   0.771690  -0.000000   0.000000  -0.000000  -0.154569
   43  B  1 ZZX   0.000000   0.009803   0.865970   0.807259  -0.000000
   44  B  1 ZZY  -0.727663  -0.000000   0.000000  -0.000000  -0.322855
   45  B  1 XYZ   0.000000   0.999936  -0.011320  -0.000000  -0.000000

                     31         32         33         34         35
                    1.9628     1.9789     1.9913     1.9913     2.2140
                     A          A          A          A          A   
    1  B  1  S   -0.000000   0.000000   0.000000  -0.000000  -0.032827
    2  B  1  S   -0.000000   0.000000   0.000000  -0.000000  -1.530108
    3  B  1  X   -0.000000  -0.777699   0.000000  -0.000000  -0.000000
    4  B  1  Y   -0.062659   0.000000   0.103643  -0.820117  -0.000000
    5  B  1  Z    0.130878   0.000000  -0.820117  -0.103643  -0.000000
    6  B  1  S   -0.000000   0.000000   0.000000  -0.000000   3.942139
    7  B  1  X   -0.000000  -0.359704   0.000000  -0.000000  -0.000000
    8  B  1  Y   -0.039935   0.000000   0.059486  -0.470704  -0.000000
    9  B  1  Z    0.083414   0.000000  -0.470704  -0.059486  -0.000000
   10  B  1  S   -0.000000   0.000000   0.000000  -0.000000   7.468948
   11  B  1  X   -0.000000  -0.668608   0.000000  -0.000000  -0.000000
   12  B  1  Y   -0.052312   0.000000   0.086201  -0.682098  -0.000000
   13  B  1  Z    0.109266   0.000000  -0.682098  -0.086201  -0.000000
   14  B  1  S   -0.000000   0.000000   0.000000  -0.000000   1.005179
   15  B  1  X   -0.000000   0.234742   0.000000  -0.000000  -0.000000
   16  B  1  Y    0.018723   0.000000  -0.030482   0.241200  -0.000000
   17  B  1  Z   -0.039108   0.000000   0.241200   0.030482  -0.000000
   18  B  1 XX   -0.000000   0.000000   0.000000  -0.000000  -0.840838
   19  B  1 YY   -0.000000   0.000000   0.000000  -0.000000  -0.837189
   20  B  1 ZZ   -0.000000   0.000000   0.000000  -0.000000  -0.837189
   21  B  1 XY   -0.000000   0.000000   0.000000  -0.000000  -0.000000
   22  B  1 XZ   -0.000000   0.000000   0.000000  -0.000000  -0.000000
   23  B  1 YZ   -0.000000   0.000000   0.000000  -0.000000  -0.000000
   24  B  1 XX   -0.000000   0.000000   0.000000  -0.000000  -3.535780
   25  B  1 YY   -0.000000   0.000000   0.000000  -0.000000  -3.524252
   26  B  1 ZZ   -0.000000   0.000000   0.000000  -0.000000  -3.524252
   27  B  1 XY   -0.000000   0.000000   0.000000  -0.000000  -0.000000
   28  B  1 XZ   -0.000000   0.000000   0.000000  -0.000000  -0.000000
   29  B  1 YZ   -0.000000   0.000000   0.000000  -0.000000  -0.000000
   30  B  1 XX   -0.000000   0.000000   0.000000  -0.000000  -1.852783
   31  B  1 YY   -0.000000   0.000000   0.000000  -0.000000  -1.860339
   32  B  1 ZZ   -0.000000   0.000000   0.000000  -0.000000  -1.860339
   33  B  1 XY   -0.000000   0.000000   0.000000  -0.000000  -0.000000
   34  B  1 XZ   -0.000000   0.000000   0.000000  -0.000000  -0.000000
   35  B  1 YZ   -0.000000   0.000000   0.000000  -0.000000  -0.000000
   36  B  1 XXX  -0.000000   1.375066   0.000000  -0.000000  -0.000000
   37  B  1 YYY   0.345627   0.000000  -0.122039   0.965685  -0.000000
   38  B  1 ZZZ  -0.721926   0.000000   0.965685   0.122039  -0.000000
   39  B  1 XXY  -0.427501   0.000000  -0.084779   0.670850  -0.000000
   40  B  1 XXZ   0.892942   0.000000   0.670850   0.084779  -0.000000
   41  B  1 YYX   0.000000   0.174078   0.000000  -0.000000  -0.000000
   42  B  1 YYZ  -0.322855   0.000000   0.431867   0.054578  -0.000000
   43  B  1 ZZX   0.000000   0.174078   0.000000  -0.000000  -0.000000
   44  B  1 ZZY   0.154569   0.000000  -0.054578   0.431867  -0.000000
   45  B  1 XYZ  -0.000000   0.000000   0.000000  -0.000000  -0.000000

                     36         37         38         39         40
                    4.7968     4.7968     4.8023     4.8023     4.8042
                     A          A          A          A          A   
    1  B  1  S   -0.000000   0.000000  -0.000000  -0.000000   0.001493
    2  B  1  S   -0.000000   0.000000  -0.000000  -0.000000  -0.012160
    3  B  1  X   -0.000000   0.000000  -0.000000  -0.000000  -0.000000
    4  B  1  Y   -0.000000   0.000000  -0.000000  -0.000000  -0.000000
    5  B  1  Z   -0.000000   0.000000  -0.000000  -0.000000  -0.000000
    6  B  1  S   -0.000000   0.000000  -0.000000  -0.000000   0.048276
    7  B  1  X   -0.000000   0.000000  -0.000000  -0.000000  -0.000000
    8  B  1  Y   -0.000000   0.000000  -0.000000  -0.000000  -0.000000
    9  B  1  Z   -0.000000   0.000000  -0.000000  -0.000000  -0.000000
   10  B  1  S   -0.000000   0.000000  -0.000000  -0.000000   0.033500
   11  B  1  X   -0.000000   0.000000  -0.000000  -0.000000  -0.000000
   12  B  1  Y   -0.000000   0.000000  -0.000000  -0.000000  -0.000000
   13  B  1  Z   -0.000000   0.000000  -0.000000  -0.000000  -0.000000
   14  B  1  S   -0.000000   0.000000  -0.000000  -0.000000   0.004024
   15  B  1  X   -0.000000   0.000000  -0.000000  -0.000000  -0.000000
   16  B  1  Y   -0.000000   0.000000  -0.000000  -0.000000  -0.000000
   17  B  1  Z   -0.000000   0.000000  -0.000000  -0.000000  -0.000000
   18  B  1 XX   -0.000000   0.000000  -0.000000  -0.000000   1.130157
   19  B  1 YY   -0.971453  -0.186616  -0.000000  -0.000000  -0.583267
   20  B  1 ZZ    0.971453   0.186616  -0.000000  -0.000000  -0.583267
   21  B  1 XY   -0.000000   0.000000   0.928419   0.665483  -0.000000
   22  B  1 XZ   -0.000000   0.000000  -0.665483   0.928419  -0.000000
   23  B  1 YZ   -0.215486   1.121738  -0.000000  -0.000000  -0.000000
   24  B  1 XX   -0.000000   0.000000  -0.000000  -0.000000  -0.627787
   25  B  1 YY    0.507696   0.097528  -0.000000  -0.000000   0.276163
   26  B  1 ZZ   -0.507696  -0.097528  -0.000000  -0.000000   0.276163
   27  B  1 XY   -0.000000   0.000000  -0.488668  -0.350274  -0.000000
   28  B  1 XZ   -0.000000   0.000000   0.350274  -0.488668  -0.000000
   29  B  1 YZ    0.112616  -0.586237  -0.000000  -0.000000  -0.000000
   30  B  1 XX   -0.000000   0.000000  -0.000000  -0.000000   0.171491
   31  B  1 YY   -0.151321  -0.029069  -0.000000  -0.000000  -0.097424
   32  B  1 ZZ    0.151321   0.029069  -0.000000  -0.000000  -0.097424
   33  B  1 XY   -0.000000   0.000000   0.145426   0.104240  -0.000000
   34  B  1 XZ   -0.000000   0.000000  -0.104240   0.145426  -0.000000
   35  B  1 YZ   -0.033566   0.174731  -0.000000  -0.000000  -0.000000
   36  B  1 XXX  -0.000000   0.000000  -0.000000  -0.000000  -0.000000
   37  B  1 YYY  -0.000000   0.000000  -0.000000  -0.000000  -0.000000
   38  B  1 ZZZ  -0.000000   0.000000  -0.000000  -0.000000  -0.000000
   39  B  1 XXY  -0.000000   0.000000  -0.000000  -0.000000  -0.000000
   40  B  1 XXZ  -0.000000   0.000000  -0.000000  -0.000000  -0.000000
   41  B  1 YYX  -0.000000   0.000000  -0.000000  -0.000000  -0.000000
   42  B  1 YYZ  -0.000000   0.000000  -0.000000  -0.000000  -0.000000
   43  B  1 ZZX  -0.000000   0.000000  -0.000000  -0.000000  -0.000000
   44  B  1 ZZY  -0.000000   0.000000  -0.000000  -0.000000  -0.000000
   45  B  1 XYZ  -0.000000   0.000000  -0.000000  -0.000000  -0.000000

                     41         42         43         44         45
                    5.7151     6.3741     6.3741     6.3908    18.9723
                     A          A          A          A          A   
    1  B  1  S    0.674837   0.000000   0.000000   0.000000  -1.895138
    2  B  1  S   -3.235594   0.000000   0.000000   0.000000   1.432760
    3  B  1  X    0.000000   0.000000  -0.000000  -3.981902  -0.000000
    4  B  1  Y    0.000000  -3.347124   2.163696  -0.000000  -0.000000
    5  B  1  Z    0.000000  -2.163696  -3.347124   0.000000  -0.000000
    6  B  1  S   13.091179   0.000000   0.000000   0.000000   4.215306
    7  B  1  X    0.000000  -0.000000   0.000000  15.024028  -0.000000
    8  B  1  Y    0.000000  12.615105  -8.154839   0.000000  -0.000000
    9  B  1  Z    0.000000   8.154839  12.615105  -0.000000  -0.000000
   10  B  1  S    5.632307   0.000000   0.000000   0.000000   0.661904
   11  B  1  X    0.000000   0.000000  -0.000000  -1.301246  -0.000000
   12  B  1  Y    0.000000  -1.094507   0.707527  -0.000000  -0.000000
   13  B  1  Z    0.000000  -0.707527  -1.094507   0.000000  -0.000000
   14  B  1  S    0.717934   0.000000   0.000000   0.000000   0.065186
   15  B  1  X    0.000000   0.000000   0.000000   0.309100  -0.000000
   16  B  1  Y    0.000000   0.260271  -0.168248   0.000000  -0.000000
   17  B  1  Z    0.000000   0.168248   0.260271   0.000000  -0.000000
   18  B  1 XX   -3.081403   0.000000   0.000000   0.000000  -1.209253
   19  B  1 YY   -3.075991   0.000000   0.000000   0.000000  -1.208476
   20  B  1 ZZ   -3.075991   0.000000   0.000000   0.000000  -1.208476
   21  B  1 XY    0.000000   0.000000   0.000000   0.000000  -0.000000
   22  B  1 XZ    0.000000   0.000000   0.000000   0.000000  -0.000000
   23  B  1 YZ    0.000000   0.000000   0.000000   0.000000  -0.000000
   24  B  1 XX   -5.259108   0.000000   0.000000   0.000000  -1.270545
   25  B  1 YY   -5.262699   0.000000   0.000000   0.000000  -1.271063
   26  B  1 ZZ   -5.262699   0.000000   0.000000   0.000000  -1.271063
   27  B  1 XY    0.000000   0.000000   0.000000   0.000000  -0.000000
   28  B  1 XZ    0.000000   0.000000   0.000000   0.000000  -0.000000
   29  B  1 YZ    0.000000   0.000000   0.000000   0.000000  -0.000000
   30  B  1 XX   -1.353959   0.000000   0.000000   0.000000  -0.144448
   31  B  1 YY   -1.352443   0.000000   0.000000   0.000000  -0.144297
   32  B  1 ZZ   -1.352443   0.000000   0.000000   0.000000  -0.144297
   33  B  1 XY    0.000000   0.000000   0.000000   0.000000  -0.000000
   34  B  1 XZ    0.000000   0.000000   0.000000   0.000000  -0.000000
   35  B  1 YZ    0.000000   0.000000   0.000000   0.000000  -0.000000
   36  B  1 XXX   0.000000   0.000000  -0.000000  -7.838840  -0.000000
   37  B  1 YYY   0.000000  -6.578697   4.252697  -0.000000  -0.000000
   38  B  1 ZZZ   0.000000  -4.252697  -6.578697   0.000000  -0.000000
   39  B  1 XXY   0.000000  -2.942711   1.902270  -0.000000  -0.000000
   40  B  1 XXZ   0.000000  -1.902270  -2.942711   0.000000  -0.000000
   41  B  1 YYX   0.000000   0.000000  -0.000000  -3.504878  -0.000000
   42  B  1 YYZ   0.000000  -1.901864  -2.942083   0.000000  -0.000000
   43  B  1 ZZX   0.000000   0.000000  -0.000000  -3.504878  -0.000000
   44  B  1 ZZY   0.000000  -2.942083   1.901864  -0.000000  -0.000000
   45  B  1 XYZ   0.000000   0.000000   0.000000   0.000000  -0.000000

 LZ VALUE ANALYSIS FOR THE MOS
 ----------------------------------------
 MO     1 (    1) HAS LZ(WEIGHT)= 0.00(100.0%) 
 MO     2 (    2) HAS LZ(WEIGHT)= 0.00(100.0%) 
 MO     3 (    3) HAS LZ(WEIGHT)= 0.00(100.0%) 
 MO     4 (    3) HAS LZ(WEIGHT)= 0.00(100.0%) 
 MO     5 (    4) HAS LZ(WEIGHT)= 0.00(100.0%) 
 MO     6 (    5) HAS LZ(WEIGHT)= 0.00(100.0%) 
 MO     7 (    6) HAS LZ(WEIGHT)= 0.00(100.0%) 
 MO     8 (    6) HAS LZ(WEIGHT)= 0.00(100.0%) 
 MO     9 (    7) HAS LZ(WEIGHT)= 0.00(100.0%) 
 MO    10 (    8) HAS LZ(WEIGHT)= 0.00(100.0%) 
 MO    11 (    9) HAS LZ(WEIGHT)= 0.00(100.0%) 
 MO    12 (    9) HAS LZ(WEIGHT)= 0.00(100.0%) 
 MO    13 (   10) HAS LZ(WEIGHT)= 0.00(100.0%) 
 MO    14 (   10) HAS LZ(WEIGHT)= 0.00(100.0%) 
 MO    15 (   11) HAS LZ(WEIGHT)= 0.00(100.0%) 
 MO    16 (   12) HAS LZ(WEIGHT)= 0.00(100.0%) 
 MO    17 (   12) HAS LZ(WEIGHT)= 0.00(100.0%) 
 MO    18 (   13) HAS LZ(WEIGHT)= 0.00(100.0%) 
 MO    19 (   14) HAS LZ(WEIGHT)= 0.00(100.0%) 
 MO    20 (   15) HAS LZ(WEIGHT)= 0.00(100.0%) 
 MO    21 (   15) HAS LZ(WEIGHT)= 0.00(100.0%) 
 MO    22 (   16) HAS LZ(WEIGHT)= 0.00(100.0%) 
 MO    23 (   16) HAS LZ(WEIGHT)= 0.00(100.0%) 
 MO    24 (   17) HAS LZ(WEIGHT)= 0.00(100.0%) 
 MO    25 (   18) HAS LZ(WEIGHT)= 0.00(100.0%) 
 MO    26 (   18) HAS LZ(WEIGHT)= 0.00(100.0%) 
 MO    27 (   19) HAS LZ(WEIGHT)= 0.00(100.0%) 
 MO    28 (   19) HAS LZ(WEIGHT)= 0.00(100.0%) 
 MO    29 (   20) HAS LZ(WEIGHT)= 0.00(100.0%) 
 MO    30 (   20) HAS LZ(WEIGHT)= 0.00(100.0%) 
 MO    31 (   21) HAS LZ(WEIGHT)= 0.00(100.0%) 
 MO    32 (   22) HAS LZ(WEIGHT)= 0.00(100.0%) 
 MO    33 (   22) HAS LZ(WEIGHT)= 0.00(100.0%) 
 MO    34 (   23) HAS LZ(WEIGHT)= 0.00(100.0%) 
 MO    35 (   24) HAS LZ(WEIGHT)= 0.00(100.0%) 
 MO    36 (   25) HAS LZ(WEIGHT)= 0.00(100.0%) 
 MO    37 (   25) HAS LZ(WEIGHT)= 0.00(100.0%) 
 MO    38 (   26) HAS LZ(WEIGHT)= 0.00(100.0%) 
 MO    39 (   26) HAS LZ(WEIGHT)= 0.00(100.0%) 
 MO    40 (   27) HAS LZ(WEIGHT)= 0.00(100.0%) 
 MO    41 (   28) HAS LZ(WEIGHT)= 0.00(100.0%) 
 MO    42 (   29) HAS LZ(WEIGHT)=-0.00( 50.0%)  0.00( 50.0%) 
 MO    43 (   29) HAS LZ(WEIGHT)=-0.00( 50.0%)  0.00( 50.0%) 
 MO    44 (   30) HAS LZ(WEIGHT)= 0.00(100.0%) 
 MO    45 (   31) HAS LZ(WEIGHT)= 0.00(100.0%) 

  ----- BETA SET ----- 

          ------------
          EIGENVECTORS
          ------------

                      1          2          3          4          5
                   -7.6864    -0.4464     0.0360     0.0360     0.0585
                     A          A          A          A          A   
    1  B  1  S    0.579651  -0.115763  -0.000000   0.000000  -0.000000
    2  B  1  S    0.459353  -0.201194  -0.000000   0.000000  -0.000000
    3  B  1  X   -0.000000  -0.000000  -0.000000   0.000000   0.074717
    4  B  1  Y   -0.000000  -0.000000   0.048272   0.105655  -0.000000
    5  B  1  Z   -0.000000  -0.000000   0.105655  -0.048272  -0.000000
    6  B  1  S   -0.009280   0.539345  -0.000000   0.000000  -0.000000
    7  B  1  X   -0.000000  -0.000000  -0.000000   0.000000   0.149462
    8  B  1  Y   -0.000000  -0.000000   0.082400   0.180351  -0.000000
    9  B  1  Z   -0.000000  -0.000000   0.180351  -0.082400  -0.000000
   10  B  1  S   -0.001475   0.607736  -0.000000   0.000000  -0.000000
   11  B  1  X   -0.000000  -0.000000  -0.000000   0.000000  -0.019992
   12  B  1  Y   -0.000000  -0.000000   0.073481   0.160832  -0.000000
   13  B  1  Z   -0.000000  -0.000000   0.160832  -0.073481  -0.000000
   14  B  1  S   -0.000198   0.054625  -0.000000   0.000000  -0.000000
   15  B  1  X   -0.000000  -0.000000  -0.000000   0.000000   0.946932
   16  B  1  Y   -0.000000  -0.000000   0.307770   0.673628  -0.000000
   17  B  1  Z   -0.000000  -0.000000   0.673628  -0.307770  -0.000000
   18  B  1 XX    0.000243  -0.007615  -0.000000   0.000000  -0.000000
   19  B  1 YY    0.001880  -0.003432  -0.000000   0.000000  -0.000000
   20  B  1 ZZ    0.001880  -0.003432  -0.000000   0.000000  -0.000000
   21  B  1 XY   -0.000000  -0.000000  -0.000000   0.000000  -0.000000
   22  B  1 XZ   -0.000000  -0.000000  -0.000000   0.000000  -0.000000
   23  B  1 YZ   -0.000000  -0.000000  -0.000000   0.000000  -0.000000
   24  B  1 XX    0.002925  -0.043268  -0.000000   0.000000  -0.000000
   25  B  1 YY    0.002705   0.002134  -0.000000   0.000000  -0.000000
   26  B  1 ZZ    0.002705   0.002134  -0.000000   0.000000  -0.000000
   27  B  1 XY   -0.000000  -0.000000  -0.000000   0.000000  -0.000000
   28  B  1 XZ   -0.000000  -0.000000  -0.000000   0.000000  -0.000000
   29  B  1 YZ   -0.000000  -0.000000  -0.000000   0.000000  -0.000000
   30  B  1 XX    0.000306  -0.047816  -0.000000   0.000000  -0.000000
   31  B  1 YY    0.000385  -0.017975  -0.000000   0.000000  -0.000000
   32  B  1 ZZ    0.000385  -0.017975  -0.000000   0.000000  -0.000000
   33  B  1 XY   -0.000000  -0.000000  -0.000000   0.000000  -0.000000
   34  B  1 XZ   -0.000000  -0.000000  -0.000000   0.000000  -0.000000
   35  B  1 YZ   -0.000000  -0.000000  -0.000000   0.000000  -0.000000
   36  B  1 XXX  -0.000000  -0.000000  -0.000000   0.000000   0.000675
   37  B  1 YYY  -0.000000  -0.000000   0.006631   0.014515  -0.000000
   38  B  1 ZZZ  -0.000000  -0.000000   0.014515  -0.006631  -0.000000
   39  B  1 XXY  -0.000000  -0.000000  -0.002031  -0.004446  -0.000000
   40  B  1 XXZ  -0.000000  -0.000000  -0.004446   0.002031  -0.000000
   41  B  1 YYX  -0.000000  -0.000000  -0.000000   0.000000   0.009057
   42  B  1 YYZ  -0.000000  -0.000000   0.006491  -0.002966  -0.000000
   43  B  1 ZZX  -0.000000  -0.000000  -0.000000   0.000000   0.009057
   44  B  1 ZZY  -0.000000  -0.000000   0.002966   0.006491  -0.000000
   45  B  1 XYZ  -0.000000  -0.000000  -0.000000   0.000000  -0.000000

                      6          7          8          9         10
                    0.0625     0.1339     0.1339     0.1688     0.2998
                     A          A          A          A          A   
    1  B  1  S    0.033878  -0.000000  -0.000000   0.000000  -0.041005
    2  B  1  S   -0.002241  -0.000000  -0.000000   0.000000  -0.255864
    3  B  1  X    0.000000  -0.000000  -0.000000   0.198982   0.000000
    4  B  1  Y    0.000000  -0.085417  -0.164085   0.000000   0.000000
    5  B  1  Z    0.000000  -0.164085   0.085417   0.000000   0.000000
    6  B  1  S   -0.300699  -0.000000  -0.000000   0.000000  -0.197877
    7  B  1  X    0.000000  -0.000000  -0.000000   0.137718   0.000000
    8  B  1  Y    0.000000  -0.069843  -0.134167   0.000000   0.000000
    9  B  1  Z    0.000000  -0.134167   0.069843   0.000000   0.000000
   10  B  1  S   -0.163616  -0.000000  -0.000000   0.000000   2.277638
   11  B  1  X    0.000000  -0.000000  -0.000000   1.084223   0.000000
   12  B  1  Y    0.000000  -0.460889  -0.885359   0.000000   0.000000
   13  B  1  Z    0.000000  -0.885359   0.460889   0.000000   0.000000
   14  B  1  S    2.345785  -0.000000  -0.000000   0.000000   2.245289
   15  B  1  X    0.000000  -0.000000  -0.000000  -0.943103   0.000000
   16  B  1  Y    0.000000   0.505228   0.970534   0.000000   0.000000
   17  B  1  Z    0.000000   0.970534  -0.505228   0.000000   0.000000
   18  B  1 XX   -0.037063  -0.000000  -0.000000   0.000000  -0.110341
   19  B  1 YY   -0.037737  -0.000000  -0.000000   0.000000  -0.114553
   20  B  1 ZZ   -0.037737  -0.000000  -0.000000   0.000000  -0.114553
   21  B  1 XY    0.000000  -0.000000  -0.000000   0.000000   0.000000
   22  B  1 XZ    0.000000  -0.000000  -0.000000   0.000000   0.000000
   23  B  1 YZ    0.000000  -0.000000  -0.000000   0.000000   0.000000
   24  B  1 XX   -0.139329  -0.000000  -0.000000   0.000000  -0.480835
   25  B  1 YY   -0.153062  -0.000000  -0.000000   0.000000  -0.432620
   26  B  1 ZZ   -0.153062  -0.000000  -0.000000   0.000000  -0.432620
   27  B  1 XY    0.000000  -0.000000  -0.000000   0.000000   0.000000
   28  B  1 XZ    0.000000  -0.000000  -0.000000   0.000000   0.000000
   29  B  1 YZ    0.000000  -0.000000  -0.000000   0.000000   0.000000
   30  B  1 XX   -0.603266  -0.000000  -0.000000   0.000000  -1.459821
   31  B  1 YY   -0.579854  -0.000000  -0.000000   0.000000  -1.888719
   32  B  1 ZZ   -0.579854  -0.000000  -0.000000   0.000000  -1.888719
   33  B  1 XY    0.000000  -0.000000  -0.000000   0.000000   0.000000
   34  B  1 XZ    0.000000  -0.000000  -0.000000   0.000000   0.000000
   35  B  1 YZ    0.000000  -0.000000  -0.000000   0.000000   0.000000
   36  B  1 XXX   0.000000  -0.000000  -0.000000  -0.008661   0.000000
   37  B  1 YYY   0.000000  -0.006304  -0.012110   0.000000   0.000000
   38  B  1 ZZZ   0.000000  -0.012110   0.006304   0.000000   0.000000
   39  B  1 XXY   0.000000   0.004044   0.007768   0.000000   0.000000
   40  B  1 XXZ   0.000000   0.007768  -0.004044   0.000000   0.000000
   41  B  1 YYX   0.000000  -0.000000  -0.000000   0.013082   0.000000
   42  B  1 YYZ   0.000000  -0.005416   0.002819   0.000000   0.000000
   43  B  1 ZZX   0.000000  -0.000000  -0.000000   0.013082   0.000000
   44  B  1 ZZY   0.000000  -0.002819  -0.005416   0.000000   0.000000
   45  B  1 XYZ   0.000000  -0.000000  -0.000000   0.000000   0.000000

                     11         12         13         14         15
                    0.3037     0.3037     0.3202     0.3202     0.3284
                     A          A          A          A          A   
    1  B  1  S   -0.000000   0.000000   0.000000   0.000000   0.006225
    2  B  1  S   -0.000000   0.000000   0.000000   0.000000   0.066826
    3  B  1  X   -0.000000   0.000000   0.000000   0.000000   0.000000
    4  B  1  Y   -0.000000   0.000000   0.000000   0.000000   0.000000
    5  B  1  Z   -0.000000   0.000000   0.000000   0.000000   0.000000
    6  B  1  S   -0.000000   0.000000   0.000000   0.000000   0.107266
    7  B  1  X   -0.000000   0.000000   0.000000   0.000000   0.000000
    8  B  1  Y   -0.000000   0.000000   0.000000   0.000000   0.000000
    9  B  1  Z   -0.000000   0.000000   0.000000   0.000000   0.000000
   10  B  1  S   -0.000000   0.000000   0.000000   0.000000  -0.722168
   11  B  1  X   -0.000000   0.000000   0.000000   0.000000   0.000000
   12  B  1  Y   -0.000000   0.000000   0.000000   0.000000   0.000000
   13  B  1  Z   -0.000000   0.000000   0.000000   0.000000   0.000000
   14  B  1  S   -0.000000   0.000000   0.000000   0.000000  -0.625789
   15  B  1  X   -0.000000   0.000000   0.000000   0.000000   0.000000
   16  B  1  Y   -0.000000   0.000000   0.000000   0.000000   0.000000
   17  B  1  Z   -0.000000   0.000000   0.000000   0.000000   0.000000
   18  B  1 XX   -0.000000   0.000000   0.000000   0.000000   0.051233
   19  B  1 YY    0.000750   0.014113   0.000000   0.000000   0.025823
   20  B  1 ZZ   -0.000750  -0.014113   0.000000   0.000000   0.025823
   21  B  1 XY   -0.000000   0.000000  -0.003946   0.016516   0.000000
   22  B  1 XZ   -0.000000   0.000000   0.016516   0.003946   0.000000
   23  B  1 YZ    0.016297  -0.000866   0.000000   0.000000   0.000000
   24  B  1 XX   -0.000000   0.000000   0.000000   0.000000   0.083277
   25  B  1 YY   -0.002110  -0.039688   0.000000   0.000000   0.165102
   26  B  1 ZZ    0.002110   0.039688   0.000000   0.000000   0.165102
   27  B  1 XY   -0.000000   0.000000   0.013121  -0.054924   0.000000
   28  B  1 XZ   -0.000000   0.000000  -0.054924  -0.013121   0.000000
   29  B  1 YZ   -0.045827   0.002437   0.000000   0.000000   0.000000
   30  B  1 XX   -0.000000   0.000000   0.000000   0.000000   1.500645
   31  B  1 YY    0.046863   0.881411   0.000000   0.000000   0.024204
   32  B  1 ZZ   -0.046863  -0.881411   0.000000   0.000000   0.024204
   33  B  1 XY   -0.000000   0.000000  -0.237856   0.995632   0.000000
   34  B  1 XZ   -0.000000   0.000000   0.995632   0.237856   0.000000
   35  B  1 YZ    1.017765  -0.054113   0.000000   0.000000   0.000000
   36  B  1 XXX  -0.000000   0.000000   0.000000   0.000000   0.000000
   37  B  1 YYY  -0.000000   0.000000   0.000000   0.000000   0.000000
   38  B  1 ZZZ  -0.000000   0.000000   0.000000   0.000000   0.000000
   39  B  1 XXY  -0.000000   0.000000   0.000000   0.000000   0.000000
   40  B  1 XXZ  -0.000000   0.000000   0.000000   0.000000   0.000000
   41  B  1 YYX  -0.000000   0.000000   0.000000   0.000000   0.000000
   42  B  1 YYZ  -0.000000   0.000000   0.000000   0.000000   0.000000
   43  B  1 ZZX  -0.000000   0.000000   0.000000   0.000000   0.000000
   44  B  1 ZZY  -0.000000   0.000000   0.000000   0.000000   0.000000
   45  B  1 XYZ  -0.000000   0.000000   0.000000   0.000000   0.000000

                     16         17         18         19         20
                    0.5469     0.5469     0.5869     0.8738     1.2056
                     A          A          A          A          A   
    1  B  1  S   -0.000000   0.000000   0.000000   0.146958  -0.000000
    2  B  1  S   -0.000000   0.000000   0.000000  -0.197617  -0.000000
    3  B  1  X   -0.000000   0.000000  -0.272300  -0.000000  -0.000000
    4  B  1  Y   -0.026480  -0.260699   0.000000  -0.000000  -0.000000
    5  B  1  Z   -0.260699   0.026480   0.000000  -0.000000  -0.000000
    6  B  1  S   -0.000000   0.000000   0.000000  -2.474292  -0.000000
    7  B  1  X   -0.000000   0.000000  -0.968920  -0.000000  -0.000000
    8  B  1  Y   -0.098609  -0.970831   0.000000  -0.000000  -0.000000
    9  B  1  Z   -0.970831   0.098609   0.000000  -0.000000  -0.000000
   10  B  1  S   -0.000000   0.000000   0.000000   7.742978  -0.000000
   11  B  1  X   -0.000000   0.000000   1.508569  -0.000000  -0.000000
   12  B  1  Y    0.156983   1.545531   0.000000  -0.000000  -0.000000
   13  B  1  Z    1.545531  -0.156983   0.000000  -0.000000  -0.000000
   14  B  1  S   -0.000000   0.000000   0.000000   1.603101  -0.000000
   15  B  1  X   -0.000000   0.000000  -0.596625  -0.000000  -0.000000
   16  B  1  Y   -0.063476  -0.624931   0.000000  -0.000000  -0.000000
   17  B  1  Z   -0.624931   0.063476   0.000000  -0.000000  -0.000000
   18  B  1 XX   -0.000000   0.000000   0.000000  -0.279525  -0.000000
   19  B  1 YY   -0.000000   0.000000   0.000000  -0.287885  -0.000727
   20  B  1 ZZ   -0.000000   0.000000   0.000000  -0.287885   0.000727
   21  B  1 XY   -0.000000   0.000000   0.000000  -0.000000  -0.000000
   22  B  1 XZ   -0.000000   0.000000   0.000000  -0.000000  -0.000000
   23  B  1 YZ   -0.000000   0.000000   0.000000  -0.000000  -0.017973
   24  B  1 XX   -0.000000   0.000000   0.000000  -1.209300  -0.000000
   25  B  1 YY   -0.000000   0.000000   0.000000  -1.230851   0.045784
   26  B  1 ZZ   -0.000000   0.000000   0.000000  -1.230851  -0.045784
   27  B  1 XY   -0.000000   0.000000   0.000000  -0.000000  -0.000000
   28  B  1 XZ   -0.000000   0.000000   0.000000  -0.000000  -0.000000
   29  B  1 YZ   -0.000000   0.000000   0.000000  -0.000000   1.132572
   30  B  1 XX   -0.000000   0.000000   0.000000  -2.387770  -0.000000
   31  B  1 YY   -0.000000   0.000000   0.000000  -2.397203  -0.019574
   32  B  1 ZZ   -0.000000   0.000000   0.000000  -2.397203   0.019574
   33  B  1 XY   -0.000000   0.000000   0.000000  -0.000000  -0.000000
   34  B  1 XZ   -0.000000   0.000000   0.000000  -0.000000  -0.000000
   35  B  1 YZ   -0.000000   0.000000   0.000000  -0.000000  -0.484194
   36  B  1 XXX  -0.000000   0.000000  -0.085080  -0.000000  -0.000000
   37  B  1 YYY  -0.009234  -0.090911   0.000000  -0.000000  -0.000000
   38  B  1 ZZZ  -0.090911   0.009234   0.000000  -0.000000  -0.000000
   39  B  1 XXY  -0.002876  -0.028313   0.000000  -0.000000  -0.000000
   40  B  1 XXZ  -0.028313   0.002876   0.000000  -0.000000  -0.000000
   41  B  1 YYX  -0.000000   0.000000  -0.051911  -0.000000  -0.000000
   42  B  1 YYZ  -0.040657   0.004130   0.000000  -0.000000  -0.000000
   43  B  1 ZZX  -0.000000   0.000000  -0.051911  -0.000000  -0.000000
   44  B  1 ZZY  -0.004130  -0.040657   0.000000  -0.000000  -0.000000
   45  B  1 XYZ  -0.000000   0.000000   0.000000  -0.000000  -0.000000

                     21         22         23         24         25
                    1.2056     1.2450     1.2450     1.2596     1.9535
                     A          A          A          A          A   
    1  B  1  S   -0.000000  -0.000000   0.000000  -0.007997  -0.000000
    2  B  1  S   -0.000000  -0.000000   0.000000  -0.019189  -0.000000
    3  B  1  X   -0.000000  -0.000000   0.000000   0.000000  -0.000000
    4  B  1  Y   -0.000000  -0.000000   0.000000   0.000000  -0.000000
    5  B  1  Z   -0.000000  -0.000000   0.000000   0.000000  -0.000000
    6  B  1  S   -0.000000  -0.000000   0.000000   0.079787  -0.000000
    7  B  1  X   -0.000000  -0.000000   0.000000   0.000000  -0.000000
    8  B  1  Y   -0.000000  -0.000000   0.000000   0.000000  -0.000000
    9  B  1  Z   -0.000000  -0.000000   0.000000   0.000000  -0.000000
   10  B  1  S   -0.000000  -0.000000   0.000000   0.009067  -0.000000
   11  B  1  X   -0.000000  -0.000000   0.000000   0.000000  -0.000000
   12  B  1  Y   -0.000000  -0.000000   0.000000   0.000000  -0.000000
   13  B  1  Z   -0.000000  -0.000000   0.000000   0.000000  -0.000000
   14  B  1  S   -0.000000  -0.000000   0.000000   0.003518  -0.000000
   15  B  1  X   -0.000000  -0.000000   0.000000   0.000000  -0.000000
   16  B  1  Y   -0.000000  -0.000000   0.000000   0.000000  -0.000000
   17  B  1  Z   -0.000000  -0.000000   0.000000   0.000000  -0.000000
   18  B  1 XX   -0.000000  -0.000000   0.000000  -0.021286  -0.000000
   19  B  1 YY   -0.015565  -0.000000   0.000000   0.007765  -0.000000
   20  B  1 ZZ    0.015565  -0.000000   0.000000   0.007765  -0.000000
   21  B  1 XY   -0.000000  -0.011930  -0.014492   0.000000  -0.000000
   22  B  1 XZ   -0.000000  -0.014492   0.011930   0.000000  -0.000000
   23  B  1 YZ    0.000839  -0.000000   0.000000   0.000000  -0.000000
   24  B  1 XX   -0.000000  -0.000000   0.000000   1.113798  -0.000000
   25  B  1 YY    0.980836  -0.000000   0.000000  -0.585850  -0.000000
   26  B  1 ZZ   -0.980836  -0.000000   0.000000  -0.585850  -0.000000
   27  B  1 XY   -0.000000   0.720625   0.875362   0.000000  -0.000000
   28  B  1 XZ   -0.000000   0.875362  -0.720625   0.000000  -0.000000
   29  B  1 YZ   -0.052867  -0.000000   0.000000   0.000000  -0.000000
   30  B  1 XX   -0.000000  -0.000000   0.000000  -0.476960  -0.000000
   31  B  1 YY   -0.419324  -0.000000   0.000000   0.231147  -0.000000
   32  B  1 ZZ    0.419324  -0.000000   0.000000   0.231147  -0.000000
   33  B  1 XY   -0.000000  -0.302257  -0.367159   0.000000  -0.000000
   34  B  1 XZ   -0.000000  -0.367159   0.302257   0.000000  -0.000000
   35  B  1 YZ    0.022602  -0.000000   0.000000   0.000000  -0.000000
   36  B  1 XXX  -0.000000  -0.000000   0.000000   0.000000  -0.000000
   37  B  1 YYY  -0.000000  -0.000000   0.000000   0.000000  -0.776055
   38  B  1 ZZZ  -0.000000  -0.000000   0.000000   0.000000  -0.150793
   39  B  1 XXY  -0.000000  -0.000000   0.000000   0.000000  -0.000000
   40  B  1 XXZ  -0.000000  -0.000000   0.000000   0.000000  -0.000000
   41  B  1 YYX  -0.000000  -0.000000   0.000000   0.000000  -0.000000
   42  B  1 YYZ  -0.000000  -0.000000   0.000000   0.000000   0.202311
   43  B  1 ZZX  -0.000000  -0.000000   0.000000   0.000000  -0.000000
   44  B  1 ZZY  -0.000000  -0.000000   0.000000   0.000000   1.041187
   45  B  1 XYZ  -0.000000  -0.000000   0.000000   0.000000  -0.000000

                     26         27         28         29         30
                    1.9535     1.9845     1.9845     1.9891     1.9891
                     A          A          A          A          A   
    1  B  1  S    0.000000   0.000000  -0.000000   0.000000  -0.000000
    2  B  1  S    0.000000   0.000000  -0.000000   0.000000  -0.000000
    3  B  1  X    0.000000   0.000000  -0.000000   0.000000  -0.000000
    4  B  1  Y    0.000000   0.000000  -0.000000  -0.444500  -0.467372
    5  B  1  Z    0.000000   0.000000  -0.000000  -0.467372   0.444500
    6  B  1  S    0.000000   0.000000  -0.000000   0.000000  -0.000000
    7  B  1  X    0.000000   0.000000  -0.000000   0.000000  -0.000000
    8  B  1  Y    0.000000   0.000000  -0.000000  -0.259154  -0.272489
    9  B  1  Z    0.000000   0.000000  -0.000000  -0.272489   0.259154
   10  B  1  S    0.000000   0.000000  -0.000000   0.000000  -0.000000
   11  B  1  X    0.000000   0.000000  -0.000000   0.000000  -0.000000
   12  B  1  Y    0.000000   0.000000  -0.000000  -0.364562  -0.383321
   13  B  1  Z    0.000000   0.000000  -0.000000  -0.383321   0.364562
   14  B  1  S    0.000000   0.000000  -0.000000   0.000000  -0.000000
   15  B  1  X    0.000000   0.000000  -0.000000   0.000000  -0.000000
   16  B  1  Y    0.000000   0.000000  -0.000000   0.129025   0.135664
   17  B  1  Z    0.000000   0.000000  -0.000000   0.135664  -0.129025
   18  B  1 XX    0.000000   0.000000  -0.000000   0.000000  -0.000000
   19  B  1 YY    0.000000   0.000000  -0.000000   0.000000  -0.000000
   20  B  1 ZZ    0.000000   0.000000  -0.000000   0.000000  -0.000000
   21  B  1 XY    0.000000   0.000000  -0.000000   0.000000  -0.000000
   22  B  1 XZ    0.000000   0.000000  -0.000000   0.000000  -0.000000
   23  B  1 YZ    0.000000   0.000000  -0.000000   0.000000  -0.000000
   24  B  1 XX    0.000000   0.000000  -0.000000   0.000000  -0.000000
   25  B  1 YY    0.000000   0.000000  -0.000000   0.000000  -0.000000
   26  B  1 ZZ    0.000000   0.000000  -0.000000   0.000000  -0.000000
   27  B  1 XY    0.000000   0.000000  -0.000000   0.000000  -0.000000
   28  B  1 XZ    0.000000   0.000000  -0.000000   0.000000  -0.000000
   29  B  1 YZ    0.000000   0.000000  -0.000000   0.000000  -0.000000
   30  B  1 XX    0.000000   0.000000  -0.000000   0.000000  -0.000000
   31  B  1 YY    0.000000   0.000000  -0.000000   0.000000  -0.000000
   32  B  1 ZZ    0.000000   0.000000  -0.000000   0.000000  -0.000000
   33  B  1 XY    0.000000   0.000000  -0.000000   0.000000  -0.000000
   34  B  1 XZ    0.000000   0.000000  -0.000000   0.000000  -0.000000
   35  B  1 YZ    0.000000   0.000000  -0.000000   0.000000  -0.000000
   36  B  1 XXX   0.000000   0.000000  -0.000000   0.000000  -0.000000
   37  B  1 YYY   0.150793   0.000000  -0.000000   0.849222   0.892919
   38  B  1 ZZZ  -0.776055   0.000000  -0.000000   0.892919  -0.849222
   39  B  1 XXY   0.000000   0.000000  -0.000000  -0.230132  -0.241973
   40  B  1 XXZ   0.000000   0.000000  -0.000000  -0.241973   0.230132
   41  B  1 YYX   0.000000   0.088721  -0.861469   0.000000  -0.000000
   42  B  1 YYZ   1.041187   0.000000  -0.000000   0.399325  -0.379784
   43  B  1 ZZX   0.000000  -0.088721   0.861469   0.000000  -0.000000
   44  B  1 ZZY  -0.202311   0.000000  -0.000000   0.379784   0.399325
   45  B  1 XYZ   0.000000   0.994739   0.102446   0.000000  -0.000000

                     31         32         33         34         35
                    2.0047     2.0142     2.0142     2.0522     2.2317
                     A          A          A          A          A   
    1  B  1  S    0.000000  -0.000000   0.000000  -0.000000  -0.032470
    2  B  1  S    0.000000  -0.000000   0.000000  -0.000000  -1.535571
    3  B  1  X   -0.297202  -0.000000   0.000000  -0.795919  -0.000000
    4  B  1  Y    0.000000  -0.403792  -0.356974  -0.000000  -0.000000
    5  B  1  Z    0.000000   0.356974  -0.403792  -0.000000  -0.000000
    6  B  1  S    0.000000  -0.000000   0.000000  -0.000000   3.990734
    7  B  1  X   -0.167743  -0.000000   0.000000  -0.420695  -0.000000
    8  B  1  Y    0.000000  -0.227846  -0.201428  -0.000000  -0.000000
    9  B  1  Z    0.000000   0.201428  -0.227846  -0.000000  -0.000000
   10  B  1  S    0.000000  -0.000000   0.000000  -0.000000   7.421843
   11  B  1  X   -0.233060  -0.000000   0.000000  -0.647732  -0.000000
   12  B  1  Y    0.000000  -0.337337  -0.298223  -0.000000  -0.000000
   13  B  1  Z    0.000000   0.298223  -0.337337  -0.000000  -0.000000
   14  B  1  S    0.000000  -0.000000   0.000000  -0.000000   0.997238
   15  B  1  X    0.082345  -0.000000   0.000000   0.227893  -0.000000
   16  B  1  Y    0.000000   0.119127   0.105314  -0.000000  -0.000000
   17  B  1  Z    0.000000  -0.105314   0.119127  -0.000000  -0.000000
   18  B  1 XX    0.000000  -0.000000   0.000000  -0.000000  -0.855140
   19  B  1 YY    0.000000  -0.000000   0.000000  -0.000000  -0.836667
   20  B  1 ZZ    0.000000  -0.000000   0.000000  -0.000000  -0.836667
   21  B  1 XY    0.000000  -0.000000   0.000000  -0.000000  -0.000000
   22  B  1 XZ    0.000000  -0.000000   0.000000  -0.000000  -0.000000
   23  B  1 YZ    0.000000  -0.000000   0.000000  -0.000000  -0.000000
   24  B  1 XX    0.000000  -0.000000   0.000000  -0.000000  -3.536495
   25  B  1 YY    0.000000  -0.000000   0.000000  -0.000000  -3.526618
   26  B  1 ZZ    0.000000  -0.000000   0.000000  -0.000000  -3.526618
   27  B  1 XY    0.000000  -0.000000   0.000000  -0.000000  -0.000000
   28  B  1 XZ    0.000000  -0.000000   0.000000  -0.000000  -0.000000
   29  B  1 YZ    0.000000  -0.000000   0.000000  -0.000000  -0.000000
   30  B  1 XX    0.000000  -0.000000   0.000000  -0.000000  -1.841841
   31  B  1 YY    0.000000  -0.000000   0.000000  -0.000000  -1.846033
   32  B  1 ZZ    0.000000  -0.000000   0.000000  -0.000000  -1.846033
   33  B  1 XY    0.000000  -0.000000   0.000000  -0.000000  -0.000000
   34  B  1 XZ    0.000000  -0.000000   0.000000  -0.000000  -0.000000
   35  B  1 YZ    0.000000  -0.000000   0.000000  -0.000000  -0.000000
   36  B  1 XXX  -0.572582  -0.000000   0.000000   1.357193  -0.000000
   37  B  1 YYY   0.000000   0.182477   0.161319  -0.000000  -0.000000
   38  B  1 ZZZ   0.000000  -0.161319   0.182477  -0.000000  -0.000000
   39  B  1 XXY   0.000000   0.864238   0.764032  -0.000000  -0.000000
   40  B  1 XXZ   0.000000  -0.764032   0.864238  -0.000000  -0.000000
   41  B  1 YYX   0.794438  -0.000000   0.000000   0.225006  -0.000000
   42  B  1 YYZ   0.000000  -0.072144   0.081606  -0.000000  -0.000000
   43  B  1 ZZX   0.794438  -0.000000   0.000000   0.225006  -0.000000
   44  B  1 ZZY   0.000000   0.081606   0.072144  -0.000000  -0.000000
   45  B  1 XYZ   0.000000  -0.000000   0.000000  -0.000000  -0.000000

                     36         37         38         39         40
                    4.8024     4.8024     4.8405     4.8405     4.8536
                     A          A          A          A          A   
    1  B  1  S    0.000000   0.000000   0.000000   0.000000   0.007473
    2  B  1  S    0.000000   0.000000   0.000000   0.000000  -0.060648
    3  B  1  X    0.000000   0.000000   0.000000   0.000000   0.000000
    4  B  1  Y    0.000000   0.000000   0.000000   0.000000   0.000000
    5  B  1  Z    0.000000   0.000000   0.000000   0.000000   0.000000
    6  B  1  S    0.000000   0.000000   0.000000   0.000000   0.241393
    7  B  1  X    0.000000   0.000000   0.000000   0.000000   0.000000
    8  B  1  Y    0.000000   0.000000   0.000000   0.000000   0.000000
    9  B  1  Z    0.000000   0.000000   0.000000   0.000000   0.000000
   10  B  1  S    0.000000   0.000000   0.000000   0.000000   0.127730
   11  B  1  X    0.000000   0.000000   0.000000   0.000000   0.000000
   12  B  1  Y    0.000000   0.000000   0.000000   0.000000   0.000000
   13  B  1  Z    0.000000   0.000000   0.000000   0.000000   0.000000
   14  B  1  S    0.000000   0.000000   0.000000   0.000000   0.015979
   15  B  1  X    0.000000   0.000000   0.000000   0.000000   0.000000
   16  B  1  Y    0.000000   0.000000   0.000000   0.000000   0.000000
   17  B  1  Z    0.000000   0.000000   0.000000   0.000000   0.000000
   18  B  1 XX    0.000000   0.000000   0.000000   0.000000   1.090530
   19  B  1 YY   -0.984416   0.097248   0.000000   0.000000  -0.622482
   20  B  1 ZZ    0.984416  -0.097248   0.000000   0.000000  -0.622482
   21  B  1 XY    0.000000   0.000000  -0.575987   0.986355   0.000000
   22  B  1 XZ    0.000000   0.000000   0.986355   0.575987   0.000000
   23  B  1 YZ    0.112293   1.136705   0.000000   0.000000   0.000000
   24  B  1 XX    0.000000   0.000000   0.000000   0.000000  -0.702201
   25  B  1 YY    0.513942  -0.050771   0.000000   0.000000   0.190223
   26  B  1 ZZ   -0.513942   0.050771   0.000000   0.000000   0.190223
   27  B  1 XY    0.000000   0.000000   0.300239  -0.514148   0.000000
   28  B  1 XZ    0.000000   0.000000  -0.514148  -0.300239   0.000000
   29  B  1 YZ   -0.058626  -0.593449   0.000000   0.000000   0.000000
   30  B  1 XX    0.000000   0.000000   0.000000   0.000000   0.146133
   31  B  1 YY   -0.153128   0.015127   0.000000   0.000000  -0.118642
   32  B  1 ZZ    0.153128  -0.015127   0.000000   0.000000  -0.118642
   33  B  1 XY    0.000000   0.000000  -0.089178   0.152714   0.000000
   34  B  1 XZ    0.000000   0.000000   0.152714   0.089178   0.000000
   35  B  1 YZ    0.017467   0.176817   0.000000   0.000000   0.000000
   36  B  1 XXX   0.000000   0.000000   0.000000   0.000000   0.000000
   37  B  1 YYY   0.000000   0.000000   0.000000   0.000000   0.000000
   38  B  1 ZZZ   0.000000   0.000000   0.000000   0.000000   0.000000
   39  B  1 XXY   0.000000   0.000000   0.000000   0.000000   0.000000
   40  B  1 XXZ   0.000000   0.000000   0.000000   0.000000   0.000000
   41  B  1 YYX   0.000000   0.000000   0.000000   0.000000   0.000000
   42  B  1 YYZ   0.000000   0.000000   0.000000   0.000000   0.000000
   43  B  1 ZZX   0.000000   0.000000   0.000000   0.000000   0.000000
   44  B  1 ZZY   0.000000   0.000000   0.000000   0.000000   0.000000
   45  B  1 XYZ   0.000000   0.000000   0.000000   0.000000   0.000000

                     41         42         43         44         45
                    5.7279     6.3787     6.3787     6.4161    18.9799
                     A          A          A          A          A   
    1  B  1  S    0.674408   0.000000   0.000000  -0.000000  -1.895086
    2  B  1  S   -3.232007   0.000000   0.000000  -0.000000   1.433289
    3  B  1  X    0.000000   0.000000  -0.000000  -3.982994  -0.000000
    4  B  1  Y    0.000000  -3.568493   1.774365  -0.000000  -0.000000
    5  B  1  Z    0.000000  -1.774365  -3.568493  -0.000000  -0.000000
    6  B  1  S   13.081115   0.000000   0.000000  -0.000000   4.213394
    7  B  1  X    0.000000  -0.000000   0.000000  15.024022  -0.000000
    8  B  1  Y    0.000000  13.450881  -6.688193   0.000000  -0.000000
    9  B  1  Z    0.000000   6.688193  13.450881  -0.000000  -0.000000
   10  B  1  S    5.617084   0.000000   0.000000  -0.000000   0.661335
   11  B  1  X    0.000000   0.000000   0.000000  -1.302687  -0.000000
   12  B  1  Y    0.000000  -1.167190   0.580363  -0.000000  -0.000000
   13  B  1  Z    0.000000  -0.580363  -1.167190  -0.000000  -0.000000
   14  B  1  S    0.715908   0.000000   0.000000  -0.000000   0.065124
   15  B  1  X    0.000000   0.000000   0.000000   0.309654  -0.000000
   16  B  1  Y    0.000000   0.277576  -0.138020  -0.000000  -0.000000
   17  B  1  Z    0.000000   0.138020   0.277576  -0.000000  -0.000000
   18  B  1 XX   -3.091725   0.000000   0.000000  -0.000000  -1.208976
   19  B  1 YY   -3.067840   0.000000   0.000000  -0.000000  -1.208078
   20  B  1 ZZ   -3.067840   0.000000   0.000000  -0.000000  -1.208078
   21  B  1 XY    0.000000   0.000000   0.000000  -0.000000  -0.000000
   22  B  1 XZ    0.000000   0.000000   0.000000  -0.000000  -0.000000
   23  B  1 YZ    0.000000   0.000000   0.000000  -0.000000  -0.000000
   24  B  1 XX   -5.243342   0.000000   0.000000  -0.000000  -1.269931
   25  B  1 YY   -5.258529   0.000000   0.000000  -0.000000  -1.270346
   26  B  1 ZZ   -5.258529   0.000000   0.000000  -0.000000  -1.270346
   27  B  1 XY    0.000000   0.000000   0.000000  -0.000000  -0.000000
   28  B  1 XZ    0.000000   0.000000   0.000000  -0.000000  -0.000000
   29  B  1 YZ    0.000000   0.000000   0.000000  -0.000000  -0.000000
   30  B  1 XX   -1.352496   0.000000   0.000000  -0.000000  -0.144300
   31  B  1 YY   -1.347546   0.000000   0.000000  -0.000000  -0.144180
   32  B  1 ZZ   -1.347546   0.000000   0.000000  -0.000000  -0.144180
   33  B  1 XY    0.000000   0.000000   0.000000  -0.000000  -0.000000
   34  B  1 XZ    0.000000   0.000000   0.000000  -0.000000  -0.000000
   35  B  1 YZ    0.000000   0.000000   0.000000  -0.000000  -0.000000
   36  B  1 XXX   0.000000   0.000000  -0.000000  -7.836269  -0.000000
   37  B  1 YYY   0.000000  -7.014758   3.487954  -0.000000  -0.000000
   38  B  1 ZZZ   0.000000  -3.487954  -7.014758  -0.000000  -0.000000
   39  B  1 XXY   0.000000  -3.136999   1.559813  -0.000000  -0.000000
   40  B  1 XXZ   0.000000  -1.559813  -3.136999  -0.000000  -0.000000
   41  B  1 YYX   0.000000   0.000000  -0.000000  -3.504589  -0.000000
   42  B  1 YYZ   0.000000  -1.559860  -3.137095  -0.000000  -0.000000
   43  B  1 ZZX   0.000000   0.000000  -0.000000  -3.504589  -0.000000
   44  B  1 ZZY   0.000000  -3.137095   1.559860  -0.000000  -0.000000
   45  B  1 XYZ   0.000000   0.000000   0.000000  -0.000000  -0.000000
 ...... END OF UHF CALCULATION ......
 STEP CPU TIME =     0.02 TOTAL CPU TIME =          0.0 (      0.0 MIN)
 TOTAL WALL CLOCK TIME=          0.1 SECONDS, CPU UTILIZATION IS   100.00%

     ----------------------------------------------------------------
     PROPERTY VALUES FOR THE UHF   SELF-CONSISTENT FIELD WAVEFUNCTION
     ----------------------------------------------------------------

          -----------------
          ENERGY COMPONENTS
          -----------------

         WAVEFUNCTION NORMALIZATION =       1.0000000000

                ONE ELECTRON ENERGY =     -32.3646702123
                TWO ELECTRON ENERGY =       7.8333540739
           NUCLEAR REPULSION ENERGY =       0.0000000000
                                      ------------------
                       TOTAL ENERGY =     -24.5313161384

 ELECTRON-ELECTRON POTENTIAL ENERGY =       7.8333540739
  NUCLEUS-ELECTRON POTENTIAL ENERGY =     -56.8911375026
   NUCLEUS-NUCLEUS POTENTIAL ENERGY =       0.0000000000
                                      ------------------
             TOTAL POTENTIAL ENERGY =     -49.0577834287
               TOTAL KINETIC ENERGY =      24.5264672903
                 VIRIAL RATIO (V/T) =       2.0001976986

          ---------------------------------------
          MULLIKEN AND LOWDIN POPULATION ANALYSES
          ---------------------------------------

     ATOMIC MULLIKEN POPULATION IN EACH MOLECULAR ORBITAL
        ALPHA ORBITALS

                      1          2          3

                  1.000000   1.000000   1.000000

    1             1.000000   1.000000   1.000000

     ATOMIC MULLIKEN POPULATION IN EACH MOLECULAR ORBITAL
         BETA ORBITALS

                      1          2

                  1.000000   1.000000

    1             1.000000   1.000000

     ATOMIC SPIN POPULATION (ALPHA MINUS BETA)
       ATOM         MULL.POP.                    LOW.POP.
    1 B             1.000000                     1.000000


          ********* ALL ELECTRONS ********

               ----- POPULATIONS IN EACH AO -----
                             MULLIKEN      LOWDIN
              1  B  1  S      1.13484     1.06769
              2  B  1  S      0.85733     0.87035
              3  B  1  X      0.18114     0.17675
              4  B  1  Y      0.00000     0.00000
              5  B  1  Z      0.00000     0.00000
              6  B  1  S      0.96894     0.39961
              7  B  1  X      0.41472     0.23433
              8  B  1  Y     -0.00000     0.00000
              9  B  1  Z      0.00000     0.00000
             10  B  1  S      1.11997     0.41015
             11  B  1  X      0.37468     0.26686
             12  B  1  Y      0.00000     0.00000
             13  B  1  Z      0.00000     0.00000
             14  B  1  S      0.06228     0.10645
             15  B  1  X      0.01745     0.05147
             16  B  1  Y      0.00000     0.00000
             17  B  1  Z      0.00000     0.00000
             18  B  1 XX     -0.00282     0.09190
             19  B  1 YY     -0.00423     0.09026
             20  B  1 ZZ     -0.00423     0.09026
             21  B  1 XY      0.00000     0.00000
             22  B  1 XZ      0.00000     0.00000
             23  B  1 YZ      0.00000     0.00000
             24  B  1 XX     -0.01457     0.24034
             25  B  1 YY     -0.01866     0.23437
             26  B  1 ZZ     -0.01866     0.23437
             27  B  1 XY      0.00000     0.00000
             28  B  1 XZ      0.00000     0.00000
             29  B  1 YZ      0.00000     0.00000
             30  B  1 XX     -0.02288     0.05728
             31  B  1 YY     -0.02866     0.05349
             32  B  1 ZZ     -0.02866     0.05349
             33  B  1 XY      0.00000     0.00000
             34  B  1 XZ      0.00000     0.00000
             35  B  1 YZ      0.00000     0.00000
             36  B  1 XXX     0.00915     0.14359
             37  B  1 YYY     0.00000     0.00000
             38  B  1 ZZZ    -0.00000     0.00000
             39  B  1 XXY     0.00000     0.00000
             40  B  1 XXZ     0.00000     0.00000
             41  B  1 YYX     0.00143     0.06350
             42  B  1 YYZ     0.00000     0.00000
             43  B  1 ZZX     0.00143     0.06350
             44  B  1 ZZY     0.00000     0.00000
             45  B  1 XYZ     0.00000     0.00000

          ----- MULLIKEN ATOMIC OVERLAP POPULATIONS -----
          (OFF-DIAGONAL ELEMENTS NEED TO BE MULTIPLIED BY 2)

             1

    1    5.0000000

          TOTAL MULLIKEN AND LOWDIN ATOMIC POPULATIONS
       ATOM         MULL.POP.    CHARGE          LOW.POP.     CHARGE
    1 B             5.000000   -0.000000         5.000000   -0.000000

          -------------------------------
          BOND ORDER AND VALENCE ANALYSIS     BOND ORDER THRESHOLD=0.050
          -------------------------------

                   BOND                       BOND                       BOND
  ATOM PAIR DIST  ORDER      ATOM PAIR DIST  ORDER      ATOM PAIR DIST  ORDER

                       TOTAL       BONDED        FREE
      ATOM            VALENCE     VALENCE     VALENCE
    1 B                 1.022       0.000       1.022

          -----------------------------------------
          ATOMIC SPIN DENSITY AT THE NUCLEUS (A.U.)
          -----------------------------------------
                            SPIN DENS    ALPHA DENS     BETA DENS
    1  B            5.0     0.0070533      34.04789      34.04084

          ---------------------
          ELECTROSTATIC MOMENTS
          ---------------------

 POINT   1           X           Y           Z (BOHR)    CHARGE
                 0.000000    0.000000    0.000000       -0.00 (A.U.)
         DX          DY          DZ         /D/  (DEBYE)
     0.000000    0.000000    0.000000    0.000000
 ...... END OF PROPERTY EVALUATION ......
 STEP CPU TIME =     0.00 TOTAL CPU TIME =          0.0 (      0.0 MIN)
 TOTAL WALL CLOCK TIME=          0.1 SECONDS, CPU UTILIZATION IS    83.33%
               580000  WORDS OF DYNAMIC MEMORY USED
 EXECUTION OF GAMESS TERMINATED NORMALLY Thu Jun 13 17:32:55 2019
 DDI: 263640 bytes (0.3 MB / 0 MWords) used by master data server.

 ----------------------------------------
 CPU timing information for all processes
 ========================================
 0: 0.48 + 0.12 = 0.60
 ----------------------------------------
 ddikick.x: exited gracefully.
----- accounting info -----
Files used on the master node amlan-PT-3420 were:
-rw-rw-r-- 1 akroy akroy   67116 Jun 13 17:32 /tmp/b_atom_6_311g3df3pd_all.dat
-rw-rw-r-- 1 akroy akroy     242 Jun 13 17:32 /tmp/b_atom_6_311g3df3pd_all.F05
-rw-rw-r-- 1 akroy akroy  900080 Jun 13 17:32 /tmp/b_atom_6_311g3df3pd_all.F08
-rw-rw-r-- 1 akroy akroy 1930480 Jun 13 17:32 /tmp/b_atom_6_311g3df3pd_all.F10
Thu Jun 13 17:32:58 IST 2019
0.0u 0.0s 0:03.15 0.9% 0+0k 0+16io 0pf+0w
