----- GAMESS execution script 'rungms' -----
This job is running on host amlan-PT-3420
under operating system Linux at Thu Jun 13 22:53:44 IST 2019
Available scratch disk space (Kbyte units) at beginning of the job is
Filesystem      1K-blocks     Used  Available Use% Mounted on
/dev/sda3      1916812448 56943484 1762477452   4% /
GAMESS temporary binary files will be written to /tmp
GAMESS supplementary output files will be written to /tmp
Copying input file li_atom_6_311g2df2pd_all.inp to your run's scratch directory...

 Distributed Data Interface kickoff program.
 Initiating 1 compute processes on 1 nodes to run the following command:
 /home/akroy/gamess/gamess.01.x li_atom_6_311g2df2pd_all 

          ******************************************************
          *         GAMESS VERSION = 30 SEP 2018 (R3)         *
          *             FROM IOWA STATE UNIVERSITY             *
          * M.W.SCHMIDT, K.K.BALDRIDGE, J.A.BOATZ, S.T.ELBERT, *
          *   M.S.GORDON, J.H.JENSEN, S.KOSEKI, N.MATSUNAGA,   *
          *          K.A.NGUYEN, S.J.SU, T.L.WINDUS,           *
          *       TOGETHER WITH M.DUPUIS, J.A.MONTGOMERY       *
          *         J.COMPUT.CHEM.  14, 1347-1363(1993)        *
          **************** 64 BIT LINUX VERSION ****************

  SINCE 1993, STUDENTS AND POSTDOCS WORKING AT IOWA STATE UNIVERSITY
  AND ALSO IN THEIR VARIOUS JOBS AFTER LEAVING ISU HAVE MADE IMPORTANT
  CONTRIBUTIONS TO THE CODE:
     IVANA ADAMOVIC, CHRISTINE AIKENS, YURI ALEXEEV, POOJA ARORA,
     ANDREY ASADCHEV, ROB BELL, PRADIPTA BANDYOPADHYAY, JONATHAN BENTZ,
     BRETT BODE, KURT BRORSEN, CALEB CARLIN, GALINA CHABAN, WEI CHEN,
     CHEOL HO CHOI, PAUL DAY, ALBERT DEFUSCO, NUWAN DESILVA, TIM DUDLEY,
     DMITRI FEDOROV, ALEX FINDLATER, GRAHAM FLETCHER, MARK FREITAG,
     KURT GLAESEMANN, ANASTASIA GUNINA,
     DAN KEMP, GRANT MERRILL, NORIYUKI MINEZAWA, JONATHAN MULLIN,
     TAKESHI NAGATA, SEAN NEDD, HEATHER NETZLOFF, BOSILJKA NJEGIC, RYAN OLSON,
     MIKE PAK, BUU PHAM,
     SPENCER PRUITT, LUKE ROSKOP, JIM SHOEMAKER, LYUDMILA SLIPCHENKO,
     TONY SMITH, SAROM SOK LEANG, JIE SONG, TETSUYA TAKETSUGU, SIMON WEBB,
     PENG XU, SOOHAENG YOO, FEDERICO ZAHARIEV

  ADDITIONAL CODE HAS BEEN PROVIDED BY COLLABORATORS IN OTHER GROUPS:
     IOWA STATE UNIVERSITY:
          JOE IVANIC, AARON WEST, LAIMUTIS BYTAUTAS, KLAUS RUEDENBERG
     UNIVERSITY OF TOKYO: KIMIHIKO HIRAO, TAKAHITO NAKAJIMA,
          TAKAO TSUNEDA, MUNEAKI KAMIYA, SUSUMU YANAGISAWA,
          KIYOSHI YAGI, MAHITO CHIBA, SEIKEN TOKURA, NAOAKI KAWAKAMI
     UNIVERSITY OF AARHUS: FRANK JENSEN
     UNIVERSITY OF IOWA: VISVALDAS KAIRYS, HUI LI
     NATIONAL INST. OF STANDARDS AND TECHNOLOGY: WALT STEVENS, DAVID GARMER
     UNIVERSITY OF PISA: BENEDETTA MENNUCCI, JACOPO TOMASI
     UNIVERSITY OF MEMPHIS: HENRY KURTZ, PRAKASHAN KORAMBATH
     UNIVERSITY OF ALBERTA: TOBY ZENG, MARIUSZ KLOBUKOWSKI
     UNIVERSITY OF NEW ENGLAND: MARK SPACKMAN
     MIE UNIVERSITY: HIROAKI UMEDA
     NAT. INST. OF ADVANCED INDUSTRIAL SCIENCE AND TECHNOLOGY: KAZUO KITAURA
     MICHIGAN STATE UNIVERSITY:
          KAROL KOWALSKI, MARTA WLOCH, JEFFREY GOUR, JESSE LUTZ,
          WEI LI, JUN SHEN, J. EMILIANO DEUSTUA, PIOTR PIECUCH
     UNIVERSITY OF MINNESOTA:
          YINAN SHU
     UNIVERSITY OF SILESIA: MONIKA MUSIAL, STANISLAW KUCHARSKI
     FACULTES UNIVERSITAIRES NOTRE-DAME DE LA PAIX:
          OLIVIER QUINET, BENOIT CHAMPAGNE
     UNIVERSITY OF CALIFORNIA - SANTA BARBARA: BERNARD KIRTMAN
     INSTITUTE FOR MOLECULAR SCIENCE:
          KAZUYA ISHIMURA, MICHIO KATOUDA, AND SHIGERU NAGASE
     UNIVERSITY OF NOTRE DAME: ANNA POMOGAEVA, DAN CHIPMAN
     KYUSHU UNIVERSITY:
          HARUYUKI NAKANO,
          FENG LONG GU, JACEK KORCHOWIEC, MARCIN MAKOWSKI, AND YURIKO AOKI,
          HIROTOSHI MORI AND EISAKU MIYOSHI
     PENNSYLVANIA STATE UNIVERSITY:
          TZVETELIN IORDANOV, CHET SWALINA, JONATHAN SKONE,
          SHARON HAMMES-SCHIFFER
     WASEDA UNIVERSITY:
          MASATO KOBAYASHI, TOMOKO AKAMA, TSUGUKI TOUMA,
          TAKESHI YOSHIKAWA, YASUHIRO IKABATA, JUNJI SEINO,
          YUYA NAKAJIMA, HIROMI NAKAI
     NANJING UNIVERSITY: SHUHUA LI
     UNIVERSITY OF NEBRASKA:
          PEIFENG SU, DEJUN SI, NANDUN THELLAMUREGE, YALI WANG, HUI LI
     UNIVERSITY OF ZURICH: ROBERTO PEVERATI, KIM BALDRIDGE
     N. COPERNICUS UNIVERSITY AND JACKSON STATE UNIVERSITY:
          MARIA BARYSZ
     UNIVERSITY OF COPENHAGEN: Jimmy Kromann, CASPER STEINMANN
     TOKYO INSTITUTE OF TECHNOLOGY: HIROYA NAKATA
     NAGOYA UNIVERSITY: YOSHIO NISHIMOTO, STEPHAN IRLE
     MOSCOW STATE UNIVERSITY: VLADIMIR MIRONOV

 EXECUTION OF GAMESS BEGUN Thu Jun 13 22:53:44 2019

            ECHO OF THE FIRST FEW INPUT CARDS -
 INPUT CARD> $CONTRL SCFTYP=UHF COORD=CART MULT=2  RUNTYP=ENERGY $END                       
 INPUT CARD> $SYSTEM TIMLIM=2000 $END                                                       
 INPUT CARD> $DFT METHOD=GRID DFTTYP=NONE $END                                              
 INPUT CARD> $BASIS EXTFIL=.TRUE. GBASIS=6311G2DF $END                                      
 INPUT CARD> $GUESS GUESS=HUCKEL $END                                                       
 INPUT CARD> $DATA                                                                          
 INPUT CARD>LI                                                                              
 INPUT CARD>C1                                                                              
 INPUT CARD>LI   3.0   0.0000   0.0000   0.0000                                             
 INPUT CARD> $END                                                                           
 INPUT CARD>                                                                                
 INPUT CARD>                                                                                
 INPUT CARD>                                                                                
 INPUT CARD>                                                                                
 INPUT CARD>                                                                                
 INPUT CARD>                                                                                
 INPUT CARD>                                                                                
 INPUT CARD>                                                                                
 INPUT CARD>                                                                                
 INPUT CARD>                                                                                
    1000000 WORDS OF MEMORY AVAILABLE


                    * * * WARNING * * *
 OLD KEYWORD COORD=CART SELECTED, AUTOMATICALLY CHANGED TO COORD=PRINAXIS.
 YOUR MOLECULE'S COORDINATES WILL BE CHANGED TO PRINCIPAL AXES BY
   A) TRANSLATION TO THE CENTER OF MASS, THEN
   B) ROTATION TO HAVE A DIAGONAL MOMENT OF INERTIA TENSOR.

 HOWEVER, NOTHING ELSE IN YOUR INPUT WILL BE ROTATED IN THE SAME WAY,
 SO IF YOU HAVE A $VEC, $VIB, $GRAD, $HESS, EFP PARTICLE COORDINATES,
 OR ANYTHING ELSE THAT DEPENDS ON THE INITIAL ORIENTATION, THAT DATA
 WILL NOT BE USED CORRECTLY IN THIS RUN.

 THE PURPOSE OF COORD=PRINAXIS IS TO BE USED ONCE, ONLY AT THE VERY
 BEGINNING OF A SERIES OF COMPUTATIONS, PERHAPS TO FIND THE SYMMETRY
 UNIQUE ATOMS FROM AN ARBITRARY INITIAL ORIENTATION.

 AFTER THE FIRST RUN, YOU SHOULD USE ONLY COORD=UNIQUE, TO ENSURE THAT
 THE COORDINATES WHICH YOU READ IN ARE THE COORDINATES THAT ARE USED.


     $BASIS REQUESTS READING THE "6311G2DF" BASIS SET FROM AN EXTERNAL FILE


     RUN TITLE
     ---------
 LI                                                                              

 THE POINT GROUP OF THE MOLECULE IS C1      
 THE ORDER OF THE PRINCIPAL AXIS IS     0

 THE MOMENTS OF INERTIA ARE (AMU-ANGSTROM**2)
 IXX=     0.000   IYY=     0.000   IZZ=     0.000

 THE EXTERNAL BASIS SET FILE BEING READ IS
     "/home/akroy/gamess/EXTFILE.txt"

 ATOM      ATOMIC                      COORDINATES (BOHR)
           CHARGE         X                   Y                   Z
 LI          3.0     0.0000000000        0.0000000000        0.0000000000

          INTERNUCLEAR DISTANCES (ANGS.)
          ------------------------------

                1 LI    

   1 LI      0.0000000  

  * ... LESS THAN  3.000


     ATOMIC BASIS SET
     ----------------
 THE CONTRACTED PRIMITIVE FUNCTIONS HAVE BEEN UNNORMALIZED
 THE CONTRACTED BASIS FUNCTIONS ARE NOW NORMALIZED TO UNITY

  SHELL TYPE  PRIMITIVE        EXPONENT          CONTRACTION COEFFICIENT(S)

 LI        

      1   S       1           900.4600000    0.002287040374
      1   S       2           134.4330000    0.017635002886
      1   S       3            30.4365000    0.087343414295
      1   S       4             8.6263900    0.280977045987
      1   S       5             2.4833200    0.658741107814
      1   S       6             0.3031790    0.118712019429

      2   L       7             4.8689000    0.093329299515    0.032766096583
      2   L       8             0.8569240    0.943044995097    0.159791983337
      2   L       9             0.2432270   -0.002798269985    0.885666907644

      3   L      10             0.0635070    1.000000000000    1.000000000000

      4   L      11             0.0243683    1.000000000000    1.000000000000

      5   D      12             0.4000000    1.000000000000

      6   D      13             0.1000000    1.000000000000

      7   F      14             0.1500000    1.000000000000

 TOTAL NUMBER OF BASIS SET SHELLS             =    7
 NUMBER OF CARTESIAN GAUSSIAN BASIS FUNCTIONS =   35
 NUMBER OF ELECTRONS                          =    3
 CHARGE OF MOLECULE                           =    0
 SPIN MULTIPLICITY                            =    2
 NUMBER OF OCCUPIED ORBITALS (ALPHA)          =    2
 NUMBER OF OCCUPIED ORBITALS (BETA )          =    1
 TOTAL NUMBER OF ATOMS                        =    1
 THE NUCLEAR REPULSION ENERGY IS        0.0000000000

 THIS MOLECULE IS RECOGNIZED AS BEING LINEAR,
 ORBITAL LZ DEGENERACY TOLERANCE ETOLLZ= 1.00E-06

     $CONTRL OPTIONS
     ---------------
 SCFTYP=UHF          RUNTYP=ENERGY       EXETYP=RUN     
 MPLEVL=       0     CITYP =NONE         CCTYP =NONE         VBTYP =NONE    
 DFTTYP=NONE         TDDFT =NONE    
 MULT  =       2     ICHARG=       0     NZVAR =       0     COORD =PRINAXIS
 PP    =NONE         RELWFN=NONE         LOCAL =NONE         NUMGRD=       F
 ISPHER=      -1     NOSYM =       0     MAXIT =      30     UNITS =ANGS    
 PLTORB=       F     MOLPLT=       F     AIMPAC=       F     FRIEND=        
 NPRINT=       7     IREST =       0     GEOM  =INPUT   
 NORMF =       0     NORMP =       0     ITOL  =      20     ICUT  =       9
 INTTYP=BEST         GRDTYP=BEST         QMTTOL= 1.0E-06

     $SYSTEM OPTIONS
     ---------------
  REPLICATED MEMORY=     1000000 WORDS (ON EVERY NODE).
 DISTRIBUTED MEMDDI=           0 MILLION WORDS IN AGGREGATE,
 MEMDDI DISTRIBUTED OVER   1 PROCESSORS IS           0 WORDS/PROCESSOR.
 TOTAL MEMORY REQUESTED ON EACH PROCESSOR=     1000000 WORDS.
 TIMLIM=        2000.00 MINUTES, OR       1.4 DAYS.
 PARALL= F  BALTYP=  DLB     KDIAG=    0  COREFL= F
 MXSEQ2=     300 MXSEQ3=     150  mem10=         0

          ----------------
          PROPERTIES INPUT
          ----------------

     MOMENTS            FIELD           POTENTIAL          DENSITY
 IEMOM =       1   IEFLD =       0   IEPOT =       0   IEDEN =       0
 WHERE =COMASS     WHERE =NUCLEI     WHERE =NUCLEI     WHERE =NUCLEI  
 OUTPUT=BOTH       OUTPUT=BOTH       OUTPUT=BOTH       OUTPUT=BOTH    
 IEMINT=       0   IEFINT=       0                     IEDINT=       0
                                                       MORB  =       0
          EXTRAPOLATION IN EFFECT
          SOSCF IN EFFECT
          DIIS or SOSCF will be reset if energy rises
 ORBITAL PRINTING OPTION: NPREO=     1    35     2     1

     -------------------------------
     INTEGRAL TRANSFORMATION OPTIONS
     -------------------------------
     NWORD  =            0
     CUTOFF = 1.0E-09     MPTRAN =       0
     DIRTRF =       F     AOINTS =DUP     

          ----------------------
          INTEGRAL INPUT OPTIONS
          ----------------------
 NOPK  =       1 NORDER=       0 SCHWRZ=       F

     ------------------------------------------
     THE POINT GROUP IS C1 , NAXIS= 0, ORDER= 1
     ------------------------------------------

     DIMENSIONS OF THE SYMMETRY SUBSPACES ARE
 A   =   35

 ..... DONE SETTING UP THE RUN .....
 STEP CPU TIME =     0.00 TOTAL CPU TIME =          0.0 (      0.0 MIN)
 TOTAL WALL CLOCK TIME=          0.0 SECONDS, CPU UTILIZATION IS     0.00%

          ********************
          1 ELECTRON INTEGRALS
          ********************
 ...... END OF ONE-ELECTRON INTEGRALS ......
 STEP CPU TIME =     0.00 TOTAL CPU TIME =          0.0 (      0.0 MIN)
 TOTAL WALL CLOCK TIME=          0.0 SECONDS, CPU UTILIZATION IS     0.00%

          -------------
          GUESS OPTIONS
          -------------
          GUESS =HUCKEL            NORB  =       0          NORDER=       0
          MIX   =       F          PRTMO =       F          PUNMO =       F
          TOLZ  = 1.0E-08          TOLE  = 1.0E-05
          SYMDEN=       F          PURIFY=       F

 INITIAL GUESS ORBITALS GENERATED BY HUCKEL   ROUTINE.
 HUCKEL GUESS REQUIRES      9804 WORDS.

 SYMMETRIES FOR INITIAL GUESS ORBITALS FOLLOW.  ALPHA SET(S).
     2 ORBITALS ARE OCCUPIED (    1 CORE ORBITALS).
     2=A        3=A        4=A        5=A        6=A        7=A        8=A   
     9=A       10=A       11=A       12=A   

 SYMMETRIES FOR INITIAL GUESS ORBITALS FOLLOW.   BETA SET(S).
     1 ORBITALS ARE OCCUPIED (    1 CORE ORBITALS).
     2=A        3=A        4=A        5=A        6=A        7=A        8=A   
     9=A       10=A       11=A   
 ...... END OF INITIAL ORBITAL SELECTION ......
 STEP CPU TIME =     0.00 TOTAL CPU TIME =          0.0 (      0.0 MIN)
 TOTAL WALL CLOCK TIME=          0.0 SECONDS, CPU UTILIZATION IS     0.00%

                    ----------------------
                    AO INTEGRAL TECHNOLOGY
                    ----------------------
     S,P,L SHELL ROTATED AXIS INTEGRALS, REPROGRAMMED BY
        KAZUYA ISHIMURA (IMS) AND JOSE SIERRA (SYNSTAR).
     S,P,D,L SHELL ROTATED AXIS INTEGRALS PROGRAMMED BY
        KAZUYA ISHIMURA (INSTITUTE FOR MOLECULAR SCIENCE).
     S,P,D,F,G SHELL TO TOTAL QUARTET ANGULAR MOMENTUM SUM 5,
        ERIC PROGRAM BY GRAHAM FLETCHER (ELORET AND NASA ADVANCED
        SUPERCOMPUTING DIVISION, AMES RESEARCH CENTER).
     S,P,D,F,G,L SHELL GENERAL RYS QUADRATURE PROGRAMMED BY
        MICHEL DUPUIS (PACIFIC NORTHWEST NATIONAL LABORATORY).

          --------------------
          2 ELECTRON INTEGRALS
          --------------------

 THE -PK- OPTION IS OFF, THE INTEGRALS ARE NOT IN SUPERMATRIX FORM.
 STORING   15000 INTEGRALS/RECORD ON DISK, USING 12 BYTES/INTEGRAL.
 TWO ELECTRON INTEGRAL EVALUATION REQUIRES   99128 WORDS OF MEMORY.
 II,JST,KST,LST =  1  1  1  1 NREC =         1 INTLOC =    1
 II,JST,KST,LST =  2  1  1  1 NREC =         1 INTLOC =    2
 II,JST,KST,LST =  3  1  1  1 NREC =         1 INTLOC =   34
 II,JST,KST,LST =  4  1  1  1 NREC =         1 INTLOC =  214
 II,JST,KST,LST =  5  1  1  1 NREC =         1 INTLOC =  776
 II,JST,KST,LST =  6  1  1  1 NREC =         1 INTLOC = 2864
 II,JST,KST,LST =  7  1  1  1 NREC =         1 INTLOC = 7967
 TOTAL NUMBER OF NONZERO TWO-ELECTRON INTEGRALS =               27193
          2 INTEGRAL RECORDS WERE STORED ON DISK FILE  8.
  ...... END OF TWO-ELECTRON INTEGRALS .....
 STEP CPU TIME =     0.01 TOTAL CPU TIME =          0.0 (      0.0 MIN)
 TOTAL WALL CLOCK TIME=          0.0 SECONDS, CPU UTILIZATION IS    50.00%

          ---------------------------
                  UHF SCF CALCULATION
          ---------------------------

     NUCLEAR ENERGY =         0.0000000000
     MAXIT = 30     NPUNCH=  2     MULT=  2
     EXTRAP=T  DAMP=F  SHIFT=F  RSTRCT=F  DIIS=F  SOSCF=T
     DENSITY MATRIX CONV=  1.00E-05
     SOSCF WILL OPTIMIZE      66 ALPHA AND      34 BETA ROTATION ANGLES.
     SOGTOL= 2.500E-01
     MEMORY REQUIRED FOR UHF/ROHF ITERS=     43510 WORDS.

 ITER EX      TOTAL ENERGY        E CHANGE  DENSITY CHANGE    ORB. GRAD 
   1  0       -7.4195235339    -7.4195235339   0.169914846   0.000000000
          ---------------START SECOND ORDER SCF---------------
   2  1       -7.4315525372    -0.0120290033   0.112225311   0.012491095
   3  2       -7.4320140555    -0.0004615183   0.082298473   0.003028771
   4  3       -7.4320950307    -0.0000809752   0.013148348   0.001069375
   5  4       -7.4320989891    -0.0000039584   0.001583228   0.000454394
   6  5       -7.4320993404    -0.0000003514   0.000494850   0.000046149
   7  6       -7.4320993444    -0.0000000040   0.000124448   0.000014785
   8  7       -7.4320993446    -0.0000000002   0.000001649   0.000001550
   9  8       -7.4320993446    -0.0000000000   0.000000919   0.000000153

          -----------------
          DENSITY CONVERGED
          -----------------
     TIME TO FORM FOCK OPERATORS=       0.0 SECONDS (       0.0 SEC/ITER)
     TIME TO SOLVE SCF EQUATIONS=       0.0 SECONDS (       0.0 SEC/ITER)

 FINAL UHF ENERGY IS       -7.4320993446 AFTER   9 ITERATIONS

          --------------------
          SPIN SZ   =    0.500
          S-SQUARED =    0.750
          --------------------

 LZ VALUE ANALYSIS FOR THE MOS
 ----------------------------------------
 MO     1 (    1) HAS LZ(WEIGHT)= 0.00(100.0%) 
 MO     2 (    2) HAS LZ(WEIGHT)= 0.00(100.0%) 
 MO     3 (    3) HAS LZ(WEIGHT)=-1.00( 43.2%) -0.00( 13.7%)  1.00( 43.2%) 
 MO     4 (    3) HAS LZ(WEIGHT)=-1.00( 49.8%)  1.00( 49.8%) 
 MO     5 (    3) HAS LZ(WEIGHT)=-1.00(  7.1%) -0.00( 85.9%)  1.00(  7.1%) 
 MO     6 (    4) HAS LZ(WEIGHT)= 0.00(100.0%) 
 MO     7 (    5) HAS LZ(WEIGHT)=-1.00( 40.2%)  0.00( 19.5%)  1.00( 40.2%) 
 MO     8 (    5) HAS LZ(WEIGHT)=-1.00( 38.9%)  0.00( 22.3%)  1.00( 38.9%) 
 MO     9 (    5) HAS LZ(WEIGHT)=-1.00( 20.9%)  0.00( 58.2%)  1.00( 20.9%) 
 MO    10 (    6) HAS LZ(WEIGHT)=-2.00( 16.1%) -1.00( 33.8%)  1.00( 33.8%)  2.00( 16.1%) 
 MO    11 (    6) HAS LZ(WEIGHT)=-2.00( 19.9%) -1.00( 29.7%)  1.00( 29.7%)  2.00( 19.9%) 
 MO    12 (    6) HAS LZ(WEIGHT)=-2.00(  2.0%) -1.00( 10.7%) -0.00( 74.7%)  1.00( 10.7%)  2.00(  2.0%) 
 MO    13 (    6) HAS LZ(WEIGHT)=-2.00( 12.4%) -1.00( 25.8%) -0.00( 23.7%)  1.00( 25.8%)  2.00( 12.4%) 
 MO    14 (    6) HAS LZ(WEIGHT)=-2.00( 49.7%)  2.00( 49.7%) 
 MO    15 (    7) HAS LZ(WEIGHT)=-1.00( 49.9%)  1.00( 49.9%) 
 MO    16 (    7) HAS LZ(WEIGHT)=-1.00( 41.0%)  0.00( 18.0%)  1.00( 41.0%) 
 MO    17 (    7) HAS LZ(WEIGHT)=-1.00(  9.1%)  0.00( 81.8%)  1.00(  9.1%) 
 MO    18 (    8) HAS LZ(WEIGHT)= 0.00(100.0%) 
 MO    19 (    9) HAS LZ(WEIGHT)=-3.00( 28.4%) -1.00( 20.7%)  1.00( 20.7%)  3.00( 28.4%) 
 MO    20 (    9) HAS LZ(WEIGHT)=-3.00( 33.0%) -1.00( 16.4%)  1.00( 16.4%)  3.00( 33.0%) 
 MO    21 (    9) HAS LZ(WEIGHT)= 0.00( 99.3%) 
 MO    22 (    9) HAS LZ(WEIGHT)=-3.00( 15.8%) -2.00(  1.0%) -1.00( 33.1%)  1.00( 33.1%)  2.00(  1.0%)  3.00( 15.8%) 
 MO    23 (    9) HAS LZ(WEIGHT)=-3.00( 18.4%) -2.00(  4.2%) -1.00( 27.3%)  1.00( 27.3%)  2.00(  4.2%)  3.00( 18.4%) 
 MO    24 (    9) HAS LZ(WEIGHT)=-3.00(  2.8%) -2.00( 46.5%)  2.00( 46.5%)  3.00(  2.8%) 
 MO    25 (    9) HAS LZ(WEIGHT)=-3.00(  1.4%) -2.00( 46.8%) -1.00(  1.8%)  1.00(  1.8%)  2.00( 46.8%)  3.00(  1.4%) 
 MO    26 (   10) HAS LZ(WEIGHT)=-1.00( 49.7%)  1.00( 49.7%) 
 MO    27 (   10) HAS LZ(WEIGHT)=-1.00( 50.0%)  1.00( 50.0%) 
 MO    28 (   10) HAS LZ(WEIGHT)=-0.00( 99.3%) 
 MO    29 (   11) HAS LZ(WEIGHT)=-1.00( 49.4%)  1.00( 49.4%) 
 MO    30 (   11) HAS LZ(WEIGHT)=-2.00( 14.2%) -1.00( 35.8%)  1.00( 35.8%)  2.00( 14.2%) 
 MO    31 (   11) HAS LZ(WEIGHT)=-2.00( 35.1%) -1.00( 14.7%)  1.00( 14.7%)  2.00( 35.1%) 
 MO    32 (   11) HAS LZ(WEIGHT)=-2.00( 44.9%) -0.00( 10.2%)  2.00( 44.9%) 
 MO    33 (   11) HAS LZ(WEIGHT)=-2.00(  5.2%) -0.00( 89.4%)  2.00(  5.2%) 
 MO    34 (   12) HAS LZ(WEIGHT)= 0.00(100.0%) 
 MO    35 (   13) HAS LZ(WEIGHT)= 0.00(100.0%) 

  ----- ALPHA SET ----- 

          ------------
          EIGENVECTORS
          ------------

                      1          2          3          4          5
                   -2.4864    -0.1963     0.0232     0.0232     0.0232
                     A          A          A          A          A   
    1  LI 1  S    0.619670  -0.090840   0.000000   0.000000  -0.000000
    2  LI 1  S    0.430508  -0.191115   0.000000   0.000000  -0.000000
    3  LI 1  X   -0.000000  -0.000000   0.127460  -0.036571  -0.048288
    4  LI 1  Y   -0.000000  -0.000000   0.030737   0.135988  -0.021859
    5  LI 1  Z   -0.000000  -0.000000   0.052196   0.009225   0.130789
    6  LI 1  S   -0.020314   0.828719   0.000000   0.000000  -0.000000
    7  LI 1  X   -0.000000  -0.000000  -0.227994   0.065417   0.086376
    8  LI 1  Y   -0.000000  -0.000000  -0.054981  -0.243248   0.039100
    9  LI 1  Z   -0.000000  -0.000000  -0.093366  -0.016501  -0.233948
   10  LI 1  S    0.000918   0.381897   0.000000   0.000000  -0.000000
   11  LI 1  X   -0.000000  -0.000000   0.912843  -0.261917  -0.345832
   12  LI 1  Y   -0.000000  -0.000000   0.220133   0.973919  -0.156547
   13  LI 1  Z   -0.000000  -0.000000   0.373820   0.066068   0.936684
   14  LI 1 XX    0.002314  -0.023583   0.000000   0.000000  -0.000000
   15  LI 1 YY    0.002314  -0.023583   0.000000   0.000000  -0.000000
   16  LI 1 ZZ    0.002314  -0.023583   0.000000   0.000000  -0.000000
   17  LI 1 XY   -0.000000  -0.000000   0.000000   0.000000  -0.000000
   18  LI 1 XZ   -0.000000  -0.000000   0.000000   0.000000  -0.000000
   19  LI 1 YZ   -0.000000  -0.000000   0.000000   0.000000  -0.000000
   20  LI 1 XX    0.006031  -0.043047   0.000000   0.000000  -0.000000
   21  LI 1 YY    0.006031  -0.043047   0.000000   0.000000  -0.000000
   22  LI 1 ZZ    0.006031  -0.043047   0.000000   0.000000  -0.000000
   23  LI 1 XY   -0.000000  -0.000000   0.000000   0.000000  -0.000000
   24  LI 1 XZ   -0.000000  -0.000000   0.000000   0.000000  -0.000000
   25  LI 1 YZ   -0.000000  -0.000000   0.000000   0.000000  -0.000000
   26  LI 1 XXX  -0.000000  -0.000000   0.138697  -0.039795  -0.052545
   27  LI 1 YYY  -0.000000  -0.000000   0.033447   0.147976  -0.023786
   28  LI 1 ZZZ  -0.000000  -0.000000   0.056798   0.010038   0.142319
   29  LI 1 XXY  -0.000000  -0.000000   0.014958   0.066177  -0.010637
   30  LI 1 XXZ  -0.000000  -0.000000   0.025401   0.004489   0.063647
   31  LI 1 YYX  -0.000000  -0.000000   0.062027  -0.017797  -0.023499
   32  LI 1 YYZ  -0.000000  -0.000000   0.025401   0.004489   0.063647
   33  LI 1 ZZX  -0.000000  -0.000000   0.062027  -0.017797  -0.023499
   34  LI 1 ZZY  -0.000000  -0.000000   0.014958   0.066177  -0.010637
   35  LI 1 XYZ  -0.000000  -0.000000   0.000000   0.000000  -0.000000

                      6          7          8          9         10
                    0.0892     0.1182     0.1182     0.1182     0.2817
                     A          A          A          A          A   
    1  LI 1  S    0.083040   0.000000   0.000000  -0.000000   0.000000
    2  LI 1  S   -0.021067   0.000000   0.000000  -0.000000   0.000000
    3  LI 1  X   -0.000000  -0.054759   0.024962   0.016261   0.000000
    4  LI 1  Y   -0.000000  -0.011370  -0.048962   0.036872   0.000000
    5  LI 1  Z   -0.000000  -0.027537  -0.029423  -0.047561   0.000000
    6  LI 1  S   -0.806914   0.000000   0.000000  -0.000000   0.000000
    7  LI 1  X   -0.000000   2.174507  -0.991268  -0.645749   0.000000
    8  LI 1  Y   -0.000000   0.451502   1.944293  -1.464225   0.000000
    9  LI 1  Z   -0.000000   1.093503   1.168416   1.888687   0.000000
   10  LI 1  S    2.010493   0.000000   0.000000  -0.000000   0.000000
   11  LI 1  X   -0.000000  -1.322470   0.602859   0.392725   0.000000
   12  LI 1  Y   -0.000000  -0.274590  -1.182461   0.890498   0.000000
   13  LI 1  Z   -0.000000  -0.665036  -0.710596  -1.148643   0.000000
   14  LI 1 XX   -0.106048   0.000000   0.000000  -0.000000   0.000509
   15  LI 1 YY   -0.106048   0.000000   0.000000  -0.000000  -0.002419
   16  LI 1 ZZ   -0.106048   0.000000   0.000000  -0.000000   0.001910
   17  LI 1 XY   -0.000000   0.000000   0.000000  -0.000000   0.029762
   18  LI 1 XZ   -0.000000   0.000000   0.000000  -0.000000  -0.016516
   19  LI 1 YZ   -0.000000   0.000000   0.000000  -0.000000  -0.039890
   20  LI 1 XX   -0.451162   0.000000   0.000000  -0.000000  -0.009919
   21  LI 1 YY   -0.451162   0.000000   0.000000  -0.000000   0.047133
   22  LI 1 ZZ   -0.451162   0.000000   0.000000  -0.000000  -0.037214
   23  LI 1 XY   -0.000000   0.000000   0.000000  -0.000000  -0.579913
   24  LI 1 XZ   -0.000000   0.000000   0.000000  -0.000000   0.321810
   25  LI 1 YZ   -0.000000   0.000000   0.000000  -0.000000   0.777239
   26  LI 1 XXX  -0.000000  -0.440525   0.200817   0.130820   0.000000
   27  LI 1 YYY  -0.000000  -0.091468  -0.393887   0.296632   0.000000
   28  LI 1 ZZZ  -0.000000  -0.221529  -0.236705  -0.382622   0.000000
   29  LI 1 XXY  -0.000000  -0.040906  -0.176152   0.132658   0.000000
   30  LI 1 XXZ  -0.000000  -0.099071  -0.105858  -0.171114   0.000000
   31  LI 1 YYX  -0.000000  -0.197009   0.089808   0.058504   0.000000
   32  LI 1 YYZ  -0.000000  -0.099071  -0.105858  -0.171114   0.000000
   33  LI 1 ZZX  -0.000000  -0.197009   0.089808   0.058504   0.000000
   34  LI 1 ZZY  -0.000000  -0.040906  -0.176152   0.132658   0.000000
   35  LI 1 XYZ  -0.000000   0.000000   0.000000  -0.000000   0.000000

                     11         12         13         14         15
                    0.2817     0.2817     0.2817     0.2817     0.3649
                     A          A          A          A          A   
    1  LI 1  S   -0.000000  -0.000000   0.000000  -0.000000   0.000000
    2  LI 1  S   -0.000000  -0.000000   0.000000  -0.000000   0.000000
    3  LI 1  X   -0.000000  -0.000000   0.000000  -0.000000   0.482210
    4  LI 1  Y   -0.000000  -0.000000   0.000000  -0.000000  -1.022773
    5  LI 1  Z   -0.000000  -0.000000   0.000000  -0.000000  -0.048607
    6  LI 1  S   -0.000000  -0.000000   0.000000  -0.000000   0.000000
    7  LI 1  X   -0.000000  -0.000000   0.000000  -0.000000  -1.783562
    8  LI 1  Y   -0.000000  -0.000000   0.000000  -0.000000   3.782956
    9  LI 1  Z   -0.000000  -0.000000   0.000000  -0.000000   0.179785
   10  LI 1  S   -0.000000  -0.000000   0.000000  -0.000000   0.000000
   11  LI 1  X   -0.000000  -0.000000   0.000000  -0.000000   0.492919
   12  LI 1  Y   -0.000000  -0.000000   0.000000  -0.000000  -1.045487
   13  LI 1  Z   -0.000000  -0.000000   0.000000  -0.000000  -0.049687
   14  LI 1 XX    0.001676   0.019611  -0.011346  -0.047327   0.000000
   15  LI 1 YY    0.003169   0.025779  -0.014200   0.043292   0.000000
   16  LI 1 ZZ   -0.004845  -0.045390   0.025547   0.004035   0.000000
   17  LI 1 XY   -0.033097  -0.009752  -0.026041   0.001351   0.000000
   18  LI 1 XZ   -0.039532   0.017464   0.024813  -0.000290   0.000000
   19  LI 1 YZ   -0.008595  -0.016831  -0.028410  -0.000896   0.000000
   20  LI 1 XX   -0.032651  -0.382114   0.221082   0.922160   0.000000
   21  LI 1 YY   -0.061744  -0.502293   0.276690  -0.843530   0.000000
   22  LI 1 ZZ    0.094395   0.884408  -0.497772  -0.078630   0.000000
   23  LI 1 XY    0.644890   0.190008   0.507400  -0.026317   0.000000
   24  LI 1 XZ    0.770266  -0.340279  -0.483465   0.005641   0.000000
   25  LI 1 YZ    0.167473   0.327945   0.553562   0.017467   0.000000
   26  LI 1 XXX  -0.000000  -0.000000   0.000000  -0.000000   0.782717
   27  LI 1 YYY  -0.000000  -0.000000   0.000000  -0.000000  -1.660152
   28  LI 1 ZZZ  -0.000000  -0.000000   0.000000  -0.000000  -0.078899
   29  LI 1 XXY  -0.000000  -0.000000   0.000000  -0.000000  -0.742443
   30  LI 1 XXZ  -0.000000  -0.000000   0.000000  -0.000000  -0.035285
   31  LI 1 YYX  -0.000000  -0.000000   0.000000  -0.000000   0.350042
   32  LI 1 YYZ  -0.000000  -0.000000   0.000000  -0.000000  -0.035285
   33  LI 1 ZZX  -0.000000  -0.000000   0.000000  -0.000000   0.350042
   34  LI 1 ZZY  -0.000000  -0.000000   0.000000  -0.000000  -0.742443
   35  LI 1 XYZ  -0.000000  -0.000000   0.000000  -0.000000   0.000000

                     16         17         18         19         20
                    0.3649     0.3649     0.5058     0.6138     0.6138
                     A          A          A          A          A   
    1  LI 1  S   -0.000000   0.000000  -0.031892  -0.000000  -0.000000
    2  LI 1  S   -0.000000   0.000000  -1.295035  -0.000000  -0.000000
    3  LI 1  X   -0.935590   0.416053   0.000000  -0.000000  -0.000000
    4  LI 1  Y   -0.418280   0.244808   0.000000  -0.000000  -0.000000
    5  LI 1  Z   -0.480279  -1.023682   0.000000  -0.000000  -0.000000
    6  LI 1  S   -0.000000   0.000000   7.206967  -0.000000  -0.000000
    7  LI 1  X    3.460488  -1.538863   0.000000  -0.000000  -0.000000
    8  LI 1  Y    1.547102  -0.905477   0.000000  -0.000000  -0.000000
    9  LI 1  Z    1.776419   3.786315   0.000000  -0.000000  -0.000000
   10  LI 1  S   -0.000000   0.000000   0.608261  -0.000000  -0.000000
   11  LI 1  X   -0.956367   0.425292   0.000000  -0.000000  -0.000000
   12  LI 1  Y   -0.427569   0.250245   0.000000  -0.000000  -0.000000
   13  LI 1  Z   -0.490945  -1.046415   0.000000  -0.000000  -0.000000
   14  LI 1 XX   -0.000000   0.000000  -0.736893  -0.000000  -0.000000
   15  LI 1 YY   -0.000000   0.000000  -0.736893  -0.000000  -0.000000
   16  LI 1 ZZ   -0.000000   0.000000  -0.736893  -0.000000  -0.000000
   17  LI 1 XY   -0.000000   0.000000   0.000000  -0.000000  -0.000000
   18  LI 1 XZ   -0.000000   0.000000   0.000000  -0.000000  -0.000000
   19  LI 1 YZ   -0.000000   0.000000   0.000000  -0.000000  -0.000000
   20  LI 1 XX   -0.000000   0.000000  -2.923319  -0.000000  -0.000000
   21  LI 1 YY   -0.000000   0.000000  -2.923319  -0.000000  -0.000000
   22  LI 1 ZZ   -0.000000   0.000000  -2.923319  -0.000000  -0.000000
   23  LI 1 XY   -0.000000   0.000000   0.000000  -0.000000  -0.000000
   24  LI 1 XZ   -0.000000   0.000000   0.000000  -0.000000  -0.000000
   25  LI 1 YZ   -0.000000   0.000000   0.000000  -0.000000  -0.000000
   26  LI 1 XXX  -1.518637   0.675331   0.000000   0.028858   0.992242
   27  LI 1 YYY  -0.678947   0.397369   0.000000   0.987142  -0.045851
   28  LI 1 ZZZ  -0.779582  -1.661626   0.000000   0.037970  -0.004418
   29  LI 1 XXY  -0.303634   0.177709   0.000000  -0.620555   0.037053
   30  LI 1 XXZ  -0.348640  -0.743102   0.000000   0.029677   0.033876
   31  LI 1 YYX  -0.679155   0.302017   0.000000  -0.075191  -0.703896
   32  LI 1 YYZ  -0.348640  -0.743102   0.000000  -0.080620  -0.027949
   33  LI 1 ZZX  -0.679155   0.302017   0.000000   0.036474  -0.627337
   34  LI 1 ZZY  -0.303634   0.177709   0.000000  -0.703835   0.024462
   35  LI 1 XYZ  -0.000000   0.000000   0.000000  -0.112930  -0.100264

                     21         22         23         24         25
                    0.6138     0.6138     0.6138     0.6138     0.6138
                     A          A          A          A          A   
    1  LI 1  S    0.000000  -0.000000  -0.000000   0.000000   0.000000
    2  LI 1  S    0.000000  -0.000000  -0.000000   0.000000   0.000000
    3  LI 1  X    0.000000  -0.000000  -0.000000   0.000000   0.000000
    4  LI 1  Y    0.000000  -0.000000  -0.000000   0.000000   0.000000
    5  LI 1  Z    0.000000  -0.000000  -0.000000   0.000000   0.000000
    6  LI 1  S    0.000000  -0.000000  -0.000000   0.000000   0.000000
    7  LI 1  X    0.000000  -0.000000  -0.000000   0.000000   0.000000
    8  LI 1  Y    0.000000  -0.000000  -0.000000   0.000000   0.000000
    9  LI 1  Z    0.000000  -0.000000  -0.000000   0.000000   0.000000
   10  LI 1  S    0.000000  -0.000000  -0.000000   0.000000   0.000000
   11  LI 1  X    0.000000  -0.000000  -0.000000   0.000000   0.000000
   12  LI 1  Y    0.000000  -0.000000  -0.000000   0.000000   0.000000
   13  LI 1  Z    0.000000  -0.000000  -0.000000   0.000000   0.000000
   14  LI 1 XX    0.000000  -0.000000  -0.000000   0.000000   0.000000
   15  LI 1 YY    0.000000  -0.000000  -0.000000   0.000000   0.000000
   16  LI 1 ZZ    0.000000  -0.000000  -0.000000   0.000000   0.000000
   17  LI 1 XY    0.000000  -0.000000  -0.000000   0.000000   0.000000
   18  LI 1 XZ    0.000000  -0.000000  -0.000000   0.000000   0.000000
   19  LI 1 YZ    0.000000  -0.000000  -0.000000   0.000000   0.000000
   20  LI 1 XX    0.000000  -0.000000  -0.000000   0.000000   0.000000
   21  LI 1 YY    0.000000  -0.000000  -0.000000   0.000000   0.000000
   22  LI 1 ZZ    0.000000  -0.000000  -0.000000   0.000000   0.000000
   23  LI 1 XY    0.000000  -0.000000  -0.000000   0.000000   0.000000
   24  LI 1 XZ    0.000000  -0.000000  -0.000000   0.000000   0.000000
   25  LI 1 YZ    0.000000  -0.000000  -0.000000   0.000000   0.000000
   26  LI 1 XXX   0.000954  -0.043351  -0.011633   0.107545  -0.032265
   27  LI 1 YYY  -0.043186  -0.032302  -0.047698   0.132754  -0.025329
   28  LI 1 ZZZ   0.996516   0.041530  -0.052683   0.029237  -0.011789
   29  LI 1 XXY   0.089887  -0.541087   0.629751  -0.260097   0.220107
   30  LI 1 XXZ  -0.659370  -0.043338   0.106783  -0.526794  -0.687321
   31  LI 1 YYX  -0.003597  -0.614734  -0.562634  -0.046034  -0.047857
   32  LI 1 YYZ  -0.677597  -0.012380  -0.036101   0.487568   0.703138
   33  LI 1 ZZX   0.002317   0.672895   0.578242  -0.098253   0.091145
   34  LI 1 ZZY  -0.031947   0.584425  -0.565757   0.081989  -0.186124
   35  LI 1 XYZ  -0.004368  -0.141816   0.278800   0.766200  -0.540621

                     26         27         28         29         30
                    0.8255     0.8255     0.8255     1.3026     1.3026
                     A          A          A          A          A   
    1  LI 1  S    0.000000  -0.000000  -0.000000   0.000000  -0.000000
    2  LI 1  S    0.000000  -0.000000  -0.000000   0.000000  -0.000000
    3  LI 1  X   -0.322724   0.548432   0.013734   0.000000  -0.000000
    4  LI 1  Y    0.546245   0.322711  -0.050899   0.000000  -0.000000
    5  LI 1  Z    0.050820   0.014021   0.634301   0.000000  -0.000000
    6  LI 1  S    0.000000  -0.000000  -0.000000   0.000000  -0.000000
    7  LI 1  X   -1.591777   2.705041   0.067739   0.000000  -0.000000
    8  LI 1  Y    2.694254   1.591716  -0.251049   0.000000  -0.000000
    9  LI 1  Z    0.250662   0.069157   3.128574   0.000000  -0.000000
   10  LI 1  S    0.000000  -0.000000  -0.000000   0.000000  -0.000000
   11  LI 1  X    0.325531  -0.553202  -0.013853   0.000000  -0.000000
   12  LI 1  Y   -0.550996  -0.325518   0.051341   0.000000  -0.000000
   13  LI 1  Z   -0.051262  -0.014143  -0.639818   0.000000  -0.000000
   14  LI 1 XX    0.000000  -0.000000  -0.000000  -0.002903  -0.005728
   15  LI 1 YY    0.000000  -0.000000  -0.000000  -0.000954  -0.015989
   16  LI 1 ZZ    0.000000  -0.000000  -0.000000   0.003857   0.021717
   17  LI 1 XY    0.000000  -0.000000  -0.000000   0.122367  -0.599403
   18  LI 1 XZ    0.000000  -0.000000  -0.000000   1.116855   0.079159
   19  LI 1 YZ    0.000000  -0.000000  -0.000000  -0.015988   0.946865
   20  LI 1 XX    0.000000  -0.000000  -0.000000   0.001209   0.002385
   21  LI 1 YY    0.000000  -0.000000  -0.000000   0.000397   0.006658
   22  LI 1 ZZ    0.000000  -0.000000  -0.000000  -0.001606  -0.009043
   23  LI 1 XY    0.000000  -0.000000  -0.000000  -0.050955   0.249598
   24  LI 1 XZ    0.000000  -0.000000  -0.000000  -0.465071  -0.032963
   25  LI 1 YZ    0.000000  -0.000000  -0.000000   0.006658  -0.394285
   26  LI 1 XXX   1.082877  -1.840224  -0.046082   0.000000  -0.000000
   27  LI 1 YYY  -1.832886  -1.082835   0.170787   0.000000  -0.000000
   28  LI 1 ZZZ  -0.170524  -0.047047  -2.128351   0.000000  -0.000000
   29  LI 1 XXY  -0.819692  -0.484259   0.076378   0.000000  -0.000000
   30  LI 1 XXZ  -0.076261  -0.021040  -0.951828   0.000000  -0.000000
   31  LI 1 YYX   0.484277  -0.822973  -0.020609   0.000000  -0.000000
   32  LI 1 YYZ  -0.076261  -0.021040  -0.951828   0.000000  -0.000000
   33  LI 1 ZZX   0.484277  -0.822973  -0.020609   0.000000  -0.000000
   34  LI 1 ZZY  -0.819692  -0.484259   0.076378   0.000000  -0.000000
   35  LI 1 XYZ   0.000000  -0.000000  -0.000000   0.000000  -0.000000

                     31         32         33         34         35
                    1.3026     1.3026     1.3026     1.6135     4.8629
                     A          A          A          A          A   
    1  LI 1  S    0.000000  -0.000000   0.000000   0.710572  -1.615236
    2  LI 1  S    0.000000  -0.000000   0.000000  -3.648052   1.199451
    3  LI 1  X    0.000000  -0.000000   0.000000   0.000000  -0.000000
    4  LI 1  Y    0.000000  -0.000000   0.000000   0.000000  -0.000000
    5  LI 1  Z    0.000000  -0.000000   0.000000   0.000000  -0.000000
    6  LI 1  S    0.000000  -0.000000   0.000000  21.803738   5.013346
    7  LI 1  X    0.000000  -0.000000   0.000000   0.000000  -0.000000
    8  LI 1  Y    0.000000  -0.000000   0.000000   0.000000  -0.000000
    9  LI 1  Z    0.000000  -0.000000   0.000000   0.000000  -0.000000
   10  LI 1  S    0.000000  -0.000000   0.000000  -0.672407  -0.327619
   11  LI 1  X    0.000000  -0.000000   0.000000   0.000000  -0.000000
   12  LI 1  Y    0.000000  -0.000000   0.000000   0.000000  -0.000000
   13  LI 1  Z    0.000000  -0.000000   0.000000   0.000000  -0.000000
   14  LI 1 XX   -0.066148   1.100131  -0.218872  -3.640844  -1.101958
   15  LI 1 YY   -0.003662  -0.742000  -0.843668  -3.640844  -1.101958
   16  LI 1 ZZ    0.069810  -0.358131   1.062541  -3.640844  -1.101958
   17  LI 1 XY    0.940733   0.046968  -0.034169   0.000000  -0.000000
   18  LI 1 XZ   -0.094729  -0.002386  -0.000253   0.000000  -0.000000
   19  LI 1 YZ    0.602065   0.031492  -0.048237   0.000000  -0.000000
   20  LI 1 XX    0.027545  -0.458107   0.091141  -6.831527  -1.418531
   21  LI 1 YY    0.001525   0.308977   0.351313  -6.831527  -1.418531
   22  LI 1 ZZ   -0.029070   0.149130  -0.442454  -6.831527  -1.418531
   23  LI 1 XY   -0.391732  -0.019558   0.014229   0.000000  -0.000000
   24  LI 1 XZ    0.039446   0.000994   0.000105   0.000000  -0.000000
   25  LI 1 YZ   -0.250707  -0.013114   0.020086   0.000000  -0.000000
   26  LI 1 XXX   0.000000  -0.000000   0.000000   0.000000  -0.000000
   27  LI 1 YYY   0.000000  -0.000000   0.000000   0.000000  -0.000000
   28  LI 1 ZZZ   0.000000  -0.000000   0.000000   0.000000  -0.000000
   29  LI 1 XXY   0.000000  -0.000000   0.000000   0.000000  -0.000000
   30  LI 1 XXZ   0.000000  -0.000000   0.000000   0.000000  -0.000000
   31  LI 1 YYX   0.000000  -0.000000   0.000000   0.000000  -0.000000
   32  LI 1 YYZ   0.000000  -0.000000   0.000000   0.000000  -0.000000
   33  LI 1 ZZX   0.000000  -0.000000   0.000000   0.000000  -0.000000
   34  LI 1 ZZY   0.000000  -0.000000   0.000000   0.000000  -0.000000
   35  LI 1 XYZ   0.000000  -0.000000   0.000000   0.000000  -0.000000

 LZ VALUE ANALYSIS FOR THE MOS
 ----------------------------------------
 MO     1 (    1) HAS LZ(WEIGHT)= 0.00(100.0%) 
 MO     2 (    2) HAS LZ(WEIGHT)= 0.00(100.0%) 
 MO     3 (    3) HAS LZ(WEIGHT)=-1.00( 43.8%) -0.00( 12.5%)  1.00( 43.8%) 
 MO     4 (    3) HAS LZ(WEIGHT)=-1.00( 11.1%) -0.00( 77.8%)  1.00( 11.1%) 
 MO     5 (    3) HAS LZ(WEIGHT)=-1.00( 45.1%) -0.00(  9.7%)  1.00( 45.1%) 
 MO     6 (    4) HAS LZ(WEIGHT)= 0.00(100.0%) 
 MO     7 (    5) HAS LZ(WEIGHT)=-1.00( 49.5%)  1.00( 49.5%) 
 MO     8 (    5) HAS LZ(WEIGHT)=-1.00( 38.2%)  0.00( 23.5%)  1.00( 38.2%) 
 MO     9 (    5) HAS LZ(WEIGHT)=-1.00( 12.3%)  0.00( 75.5%)  1.00( 12.3%) 
 MO    10 (    6) HAS LZ(WEIGHT)=-2.00(  6.6%) -1.00( 43.4%)  1.00( 43.4%)  2.00(  6.6%) 
 MO    11 (    6) HAS LZ(WEIGHT)=-2.00(  3.6%) -1.00( 46.0%)  1.00( 46.0%)  2.00(  3.6%) 
 MO    12 (    6) HAS LZ(WEIGHT)= 0.00( 98.2%) 
 MO    13 (    6) HAS LZ(WEIGHT)=-2.00( 49.6%)  2.00( 49.6%) 
 MO    14 (    6) HAS LZ(WEIGHT)=-2.00( 39.8%) -1.00( 10.2%)  1.00( 10.2%)  2.00( 39.8%) 
 MO    15 (    7) HAS LZ(WEIGHT)=-1.00( 49.9%)  1.00( 49.9%) 
 MO    16 (    7) HAS LZ(WEIGHT)=-1.00( 48.5%)  0.00(  3.0%)  1.00( 48.5%) 
 MO    17 (    7) HAS LZ(WEIGHT)=-1.00(  1.6%)  0.00( 96.9%)  1.00(  1.6%) 
 MO    18 (    8) HAS LZ(WEIGHT)= 0.00(100.0%) 
 MO    19 (    9) HAS LZ(WEIGHT)=-3.00( 31.4%) -1.00( 18.4%)  1.00( 18.4%)  3.00( 31.4%) 
 MO    20 (    9) HAS LZ(WEIGHT)=-3.00( 34.7%) -1.00( 14.8%)  1.00( 14.8%)  3.00( 34.7%) 
 MO    21 (    9) HAS LZ(WEIGHT)=-3.00( 11.2%) -2.00( 19.8%) -1.00( 18.9%)  1.00( 18.9%)  2.00( 19.8%)  3.00( 11.2%) 
 MO    22 (    9) HAS LZ(WEIGHT)=-3.00( 13.2%) -2.00(  5.8%) -1.00( 29.7%) -0.00(  2.5%)  1.00( 29.7%)  2.00(  5.8%)  3.00( 13.2%) 
 MO    23 (    9) HAS LZ(WEIGHT)=-3.00(  1.3%) -2.00(  9.8%) -1.00(  4.9%) -0.00( 68.2%)  1.00(  4.9%)  2.00(  9.8%)  3.00(  1.3%) 
 MO    24 (    9) HAS LZ(WEIGHT)=-3.00(  4.0%) -2.00( 32.9%) -1.00( 10.1%) -0.00(  6.0%)  1.00( 10.1%)  2.00( 32.9%)  3.00(  4.0%) 
 MO    25 (    9) HAS LZ(WEIGHT)=-3.00(  4.2%) -2.00( 31.2%) -1.00(  3.2%) -0.00( 23.0%)  1.00(  3.2%)  2.00( 31.2%)  3.00(  4.2%) 
 MO    26 (   10) HAS LZ(WEIGHT)=-1.00( 49.5%)  1.00( 49.5%) 
 MO    27 (   10) HAS LZ(WEIGHT)=-1.00( 50.0%)  1.00( 50.0%) 
 MO    28 (   10) HAS LZ(WEIGHT)= 0.00( 99.1%) 
 MO    29 (   11) HAS LZ(WEIGHT)=-2.00(  1.1%) -1.00( 48.9%)  1.00( 48.9%)  2.00(  1.1%) 
 MO    30 (   11) HAS LZ(WEIGHT)=-2.00( 15.8%) -1.00( 34.2%)  1.00( 34.2%)  2.00( 15.8%) 
 MO    31 (   11) HAS LZ(WEIGHT)=-2.00( 34.6%) -1.00( 15.4%)  1.00( 15.4%)  2.00( 34.6%) 
 MO    32 (   11) HAS LZ(WEIGHT)=-2.00( 48.1%) -1.00(  1.5%)  1.00(  1.5%)  2.00( 48.1%) 
 MO    33 (   11) HAS LZ(WEIGHT)=-0.00( 99.1%) 
 MO    34 (   12) HAS LZ(WEIGHT)= 0.00(100.0%) 
 MO    35 (   13) HAS LZ(WEIGHT)= 0.00(100.0%) 

  ----- BETA SET ----- 

          ------------
          EIGENVECTORS
          ------------

                      1          2          3          4          5
                   -2.4685     0.0166     0.0452     0.0452     0.0452
                     A          A          A          A          A   
    1  LI 1  S    0.614666  -0.046632  -0.000000   0.000000  -0.000000
    2  LI 1  S    0.434978  -0.144708  -0.000000   0.000000  -0.000000
    3  LI 1  X   -0.000000  -0.000000   0.119853  -0.062623   0.041436
    4  LI 1  Y   -0.000000  -0.000000  -0.056067  -0.022717   0.127842
    5  LI 1  Z   -0.000000  -0.000000   0.049950   0.124762   0.044076
    6  LI 1  S   -0.020167   0.199084  -0.000000   0.000000  -0.000000
    7  LI 1  X   -0.000000  -0.000000  -0.644627   0.336816  -0.222861
    8  LI 1  Y   -0.000000  -0.000000   0.301558   0.122185  -0.687597
    9  LI 1  Z   -0.000000  -0.000000  -0.268654  -0.671031  -0.237064
   10  LI 1  S    0.001109   1.176505  -0.000000   0.000000  -0.000000
   11  LI 1  X   -0.000000  -0.000000   1.116846  -0.583550   0.386118
   12  LI 1  Y   -0.000000  -0.000000  -0.522464  -0.211691   1.191294
   13  LI 1  Z   -0.000000  -0.000000   0.465456   1.162592   0.410724
   14  LI 1 XX    0.003262  -0.044717  -0.000000   0.000000  -0.000000
   15  LI 1 YY    0.003262  -0.044717  -0.000000   0.000000  -0.000000
   16  LI 1 ZZ    0.003262  -0.044717  -0.000000   0.000000  -0.000000
   17  LI 1 XY   -0.000000  -0.000000  -0.000000   0.000000  -0.000000
   18  LI 1 XZ   -0.000000  -0.000000  -0.000000   0.000000  -0.000000
   19  LI 1 YZ   -0.000000  -0.000000  -0.000000   0.000000  -0.000000
   20  LI 1 XX    0.005829  -0.143511  -0.000000   0.000000  -0.000000
   21  LI 1 YY    0.005829  -0.143511  -0.000000   0.000000  -0.000000
   22  LI 1 ZZ    0.005829  -0.143511  -0.000000   0.000000  -0.000000
   23  LI 1 XY   -0.000000  -0.000000  -0.000000   0.000000  -0.000000
   24  LI 1 XZ   -0.000000  -0.000000  -0.000000   0.000000  -0.000000
   25  LI 1 YZ   -0.000000  -0.000000  -0.000000   0.000000  -0.000000
   26  LI 1 XXX  -0.000000  -0.000000   0.199462  -0.104219   0.068958
   27  LI 1 YYY  -0.000000  -0.000000  -0.093309  -0.037807   0.212758
   28  LI 1 ZZZ  -0.000000  -0.000000   0.083128   0.207632   0.073353
   29  LI 1 XXY  -0.000000  -0.000000  -0.041729  -0.016908   0.095148
   30  LI 1 XXZ  -0.000000  -0.000000   0.037176   0.092856   0.032804
   31  LI 1 YYX  -0.000000  -0.000000   0.089202  -0.046608   0.030839
   32  LI 1 YYZ  -0.000000  -0.000000   0.037176   0.092856   0.032804
   33  LI 1 ZZX  -0.000000  -0.000000   0.089202  -0.046608   0.030839
   34  LI 1 ZZY  -0.000000  -0.000000  -0.041729  -0.016908   0.095148
   35  LI 1 XYZ  -0.000000  -0.000000  -0.000000   0.000000  -0.000000

                      6          7          8          9         10
                    0.1279     0.1483     0.1483     0.1483     0.3047
                     A          A          A          A          A   
    1  LI 1  S    0.111587   0.000000   0.000000   0.000000  -0.000000
    2  LI 1  S   -0.015837   0.000000   0.000000   0.000000  -0.000000
    3  LI 1  X   -0.000000   0.053299  -0.059849   0.039489  -0.000000
    4  LI 1  Y   -0.000000  -0.071156  -0.050216   0.019933  -0.000000
    5  LI 1  Z   -0.000000   0.008843  -0.043342  -0.077623  -0.000000
    6  LI 1  S   -0.645628   0.000000   0.000000   0.000000  -0.000000
    7  LI 1  X   -0.000000  -1.554948   1.746023  -1.152058  -0.000000
    8  LI 1  Y   -0.000000   2.075881   1.465002  -0.581532  -0.000000
    9  LI 1  Z   -0.000000  -0.257973   1.264464   2.264570  -0.000000
   10  LI 1  S    1.698180   0.000000   0.000000   0.000000  -0.000000
   11  LI 1  X   -0.000000   0.774096  -0.869218   0.573526  -0.000000
   12  LI 1  Y   -0.000000  -1.033431  -0.729318   0.289503  -0.000000
   13  LI 1  Z   -0.000000   0.128426  -0.629485  -1.127365  -0.000000
   14  LI 1 XX   -0.129590   0.000000   0.000000   0.000000  -0.000107
   15  LI 1 YY   -0.129590   0.000000   0.000000   0.000000  -0.000690
   16  LI 1 ZZ   -0.129590   0.000000   0.000000   0.000000   0.000798
   17  LI 1 XY   -0.000000   0.000000   0.000000   0.000000   0.021032
   18  LI 1 XZ   -0.000000   0.000000   0.000000   0.000000  -0.006662
   19  LI 1 YZ   -0.000000   0.000000   0.000000   0.000000  -0.053398
   20  LI 1 XX   -0.567246   0.000000   0.000000   0.000000   0.001905
   21  LI 1 YY   -0.567246   0.000000   0.000000   0.000000   0.012249
   22  LI 1 ZZ   -0.567246   0.000000   0.000000   0.000000  -0.014154
   23  LI 1 XY   -0.000000   0.000000   0.000000   0.000000  -0.373136
   24  LI 1 XZ   -0.000000   0.000000   0.000000   0.000000   0.118202
   25  LI 1 YZ   -0.000000   0.000000   0.000000   0.000000   0.947352
   26  LI 1 XXX  -0.000000   0.340499  -0.382341   0.252276  -0.000000
   27  LI 1 YYY  -0.000000  -0.454573  -0.320803   0.127343  -0.000000
   28  LI 1 ZZZ  -0.000000   0.056490  -0.276890  -0.495891  -0.000000
   29  LI 1 XXY  -0.000000  -0.203291  -0.143468   0.056949  -0.000000
   30  LI 1 XXZ  -0.000000   0.025263  -0.123829  -0.221769  -0.000000
   31  LI 1 YYX  -0.000000   0.152276  -0.170988   0.112821  -0.000000
   32  LI 1 YYZ  -0.000000   0.025263  -0.123829  -0.221769  -0.000000
   33  LI 1 ZZX  -0.000000   0.152276  -0.170988   0.112821  -0.000000
   34  LI 1 ZZY  -0.000000  -0.203291  -0.143468   0.056949  -0.000000
   35  LI 1 XYZ  -0.000000   0.000000   0.000000   0.000000  -0.000000

                     11         12         13         14         15
                    0.3047     0.3047     0.3047     0.3047     0.3790
                     A          A          A          A          A   
    1  LI 1  S   -0.000000   0.000000   0.000000  -0.000000   0.000000
    2  LI 1  S   -0.000000   0.000000   0.000000  -0.000000   0.000000
    3  LI 1  X   -0.000000   0.000000   0.000000  -0.000000   0.504567
    4  LI 1  Y   -0.000000   0.000000   0.000000  -0.000000  -1.006657
    5  LI 1  Z   -0.000000   0.000000   0.000000  -0.000000  -0.040657
    6  LI 1  S   -0.000000   0.000000   0.000000  -0.000000   0.000000
    7  LI 1  X   -0.000000   0.000000   0.000000  -0.000000  -1.821710
    8  LI 1  Y   -0.000000   0.000000   0.000000  -0.000000   3.634480
    9  LI 1  Z   -0.000000   0.000000   0.000000  -0.000000   0.146788
   10  LI 1  S   -0.000000   0.000000   0.000000  -0.000000   0.000000
   11  LI 1  X   -0.000000   0.000000   0.000000  -0.000000   0.493714
   12  LI 1  Y   -0.000000   0.000000   0.000000  -0.000000  -0.985006
   13  LI 1  Z   -0.000000   0.000000   0.000000  -0.000000  -0.039782
   14  LI 1 XX   -0.002369   0.024169  -0.052394  -0.001960   0.000000
   15  LI 1 YY   -0.002838   0.033088   0.047101   0.004112   0.000000
   16  LI 1 ZZ    0.005207  -0.057257   0.005293  -0.002152   0.000000
   17  LI 1 XY   -0.015573   0.001095   0.003089  -0.051412   0.000000
   18  LI 1 XZ   -0.055393  -0.005711  -0.000636   0.013893   0.000000
   19  LI 1 YZ    0.000857   0.000256   0.001013  -0.022037   0.000000
   20  LI 1 XX    0.042022  -0.428792   0.929555   0.034774   0.000000
   21  LI 1 YY    0.050350  -0.587035  -0.835642  -0.072952   0.000000
   22  LI 1 ZZ   -0.092372   1.015827  -0.093913   0.038178   0.000000
   23  LI 1 XY    0.276285  -0.019423  -0.054806   0.912123   0.000000
   24  LI 1 XZ    0.982748   0.101319   0.011289  -0.246486   0.000000
   25  LI 1 YZ   -0.015208  -0.004539  -0.017974   0.390978   0.000000
   26  LI 1 XXX  -0.000000   0.000000   0.000000  -0.000000   0.815690
   27  LI 1 YYY  -0.000000   0.000000   0.000000  -0.000000  -1.627378
   28  LI 1 ZZZ  -0.000000   0.000000   0.000000  -0.000000  -0.065726
   29  LI 1 XXY  -0.000000   0.000000   0.000000  -0.000000  -0.727785
   30  LI 1 XXZ  -0.000000   0.000000   0.000000  -0.000000  -0.029394
   31  LI 1 YYX  -0.000000   0.000000   0.000000  -0.000000   0.364788
   32  LI 1 YYZ  -0.000000   0.000000   0.000000  -0.000000  -0.029394
   33  LI 1 ZZX  -0.000000   0.000000   0.000000  -0.000000   0.364788
   34  LI 1 ZZY  -0.000000   0.000000   0.000000  -0.000000  -0.727785
   35  LI 1 XYZ  -0.000000   0.000000   0.000000  -0.000000   0.000000

                     16         17         18         19         20
                    0.3790     0.3790     0.5332     0.6280     0.6280
                     A          A          A          A          A   
    1  LI 1  S    0.000000  -0.000000  -0.035441   0.000000  -0.000000
    2  LI 1  S    0.000000  -0.000000  -1.329568   0.000000  -0.000000
    3  LI 1  X   -0.995310   0.156109  -0.000000   0.000000  -0.000000
    4  LI 1  Y   -0.491021   0.123040  -0.000000   0.000000  -0.000000
    5  LI 1  Z   -0.194566  -1.109094  -0.000000   0.000000  -0.000000
    6  LI 1  S    0.000000  -0.000000   7.422814   0.000000  -0.000000
    7  LI 1  X    3.593511  -0.563621  -0.000000   0.000000  -0.000000
    8  LI 1  Y    1.772804  -0.444229  -0.000000   0.000000  -0.000000
    9  LI 1  Z    0.702468   4.004324  -0.000000   0.000000  -0.000000
   10  LI 1  S    0.000000  -0.000000   0.534838   0.000000  -0.000000
   11  LI 1  X   -0.973902   0.152751  -0.000000   0.000000  -0.000000
   12  LI 1  Y   -0.480460   0.120394  -0.000000   0.000000  -0.000000
   13  LI 1  Z   -0.190381  -1.085240  -0.000000   0.000000  -0.000000
   14  LI 1 XX    0.000000  -0.000000  -0.757262   0.000000  -0.000000
   15  LI 1 YY    0.000000  -0.000000  -0.757262   0.000000  -0.000000
   16  LI 1 ZZ    0.000000  -0.000000  -0.757262   0.000000  -0.000000
   17  LI 1 XY    0.000000  -0.000000  -0.000000   0.000000  -0.000000
   18  LI 1 XZ    0.000000  -0.000000  -0.000000   0.000000  -0.000000
   19  LI 1 YZ    0.000000  -0.000000  -0.000000   0.000000  -0.000000
   20  LI 1 XX    0.000000  -0.000000  -2.947307   0.000000  -0.000000
   21  LI 1 YY    0.000000  -0.000000  -2.947307   0.000000  -0.000000
   22  LI 1 ZZ    0.000000  -0.000000  -2.947307   0.000000  -0.000000
   23  LI 1 XY    0.000000  -0.000000  -0.000000   0.000000  -0.000000
   24  LI 1 XZ    0.000000  -0.000000  -0.000000   0.000000  -0.000000
   25  LI 1 YZ    0.000000  -0.000000  -0.000000   0.000000  -0.000000
   26  LI 1 XXX  -1.609033   0.252368  -0.000000   0.019783   0.989212
   27  LI 1 YYY  -0.793792   0.198908  -0.000000   0.997687  -0.020455
   28  LI 1 ZZZ  -0.314538  -1.792979  -0.000000   0.058357   0.014161
   29  LI 1 XXY  -0.354995   0.088955  -0.000000  -0.673676   0.076228
   30  LI 1 XXZ  -0.140666  -0.801845  -0.000000  -0.062753   0.004041
   31  LI 1 YYX  -0.719582   0.112862  -0.000000  -0.014541  -0.733237
   32  LI 1 YYZ  -0.140666  -0.801845  -0.000000  -0.015540  -0.023040
   33  LI 1 ZZX  -0.719582   0.112862  -0.000000  -0.012001  -0.593930
   34  LI 1 ZZY  -0.354995   0.088955  -0.000000  -0.664862  -0.048785
   35  LI 1 XYZ   0.000000  -0.000000  -0.000000   0.007269   0.094435

                     21         22         23         24         25
                    0.6280     0.6280     0.6280     0.6280     0.6280
                     A          A          A          A          A   
    1  LI 1  S   -0.000000   0.000000   0.000000   0.000000   0.000000
    2  LI 1  S   -0.000000   0.000000   0.000000   0.000000   0.000000
    3  LI 1  X   -0.000000   0.000000   0.000000   0.000000   0.000000
    4  LI 1  Y   -0.000000   0.000000   0.000000   0.000000   0.000000
    5  LI 1  Z   -0.000000   0.000000   0.000000   0.000000   0.000000
    6  LI 1  S   -0.000000   0.000000   0.000000   0.000000   0.000000
    7  LI 1  X   -0.000000   0.000000   0.000000   0.000000   0.000000
    8  LI 1  Y   -0.000000   0.000000   0.000000   0.000000   0.000000
    9  LI 1  Z   -0.000000   0.000000   0.000000   0.000000   0.000000
   10  LI 1  S   -0.000000   0.000000   0.000000   0.000000   0.000000
   11  LI 1  X   -0.000000   0.000000   0.000000   0.000000   0.000000
   12  LI 1  Y   -0.000000   0.000000   0.000000   0.000000   0.000000
   13  LI 1  Z   -0.000000   0.000000   0.000000   0.000000   0.000000
   14  LI 1 XX   -0.000000   0.000000   0.000000   0.000000   0.000000
   15  LI 1 YY   -0.000000   0.000000   0.000000   0.000000   0.000000
   16  LI 1 ZZ   -0.000000   0.000000   0.000000   0.000000   0.000000
   17  LI 1 XY   -0.000000   0.000000   0.000000   0.000000   0.000000
   18  LI 1 XZ   -0.000000   0.000000   0.000000   0.000000   0.000000
   19  LI 1 YZ   -0.000000   0.000000   0.000000   0.000000   0.000000
   20  LI 1 XX   -0.000000   0.000000   0.000000   0.000000   0.000000
   21  LI 1 YY   -0.000000   0.000000   0.000000   0.000000   0.000000
   22  LI 1 ZZ   -0.000000   0.000000   0.000000   0.000000   0.000000
   23  LI 1 XY   -0.000000   0.000000   0.000000   0.000000   0.000000
   24  LI 1 XZ   -0.000000   0.000000   0.000000   0.000000   0.000000
   25  LI 1 YZ   -0.000000   0.000000   0.000000   0.000000   0.000000
   26  LI 1 XXX  -0.009696  -0.064693   0.061549   0.089210   0.071009
   27  LI 1 YYY  -0.000814  -0.018348  -0.045400  -0.009465   0.041405
   28  LI 1 ZZZ  -0.000376   0.157163   0.825847  -0.243943  -0.479752
   29  LI 1 XXY  -0.667694  -0.025269  -0.238013  -0.381026  -0.303423
   30  LI 1 XXZ   0.228614  -0.397214  -0.479973  -0.518369   0.697798
   31  LI 1 YYX  -0.070379  -0.756499   0.082429   0.174733  -0.218133
   32  LI 1 YYZ  -0.228110   0.186358  -0.628017   0.845652  -0.054143
   33  LI 1 ZZX   0.083388   0.843293  -0.165005  -0.294421   0.122864
   34  LI 1 ZZY   0.668787   0.049884   0.298923   0.393724   0.247872
   35  LI 1 XYZ   0.571925  -0.047590  -0.433951  -0.197008  -0.659197

                     26         27         28         29         30
                    0.8343     0.8343     0.8343     1.3145     1.3145
                     A          A          A          A          A   
    1  LI 1  S   -0.000000   0.000000  -0.000000   0.000000  -0.000000
    2  LI 1  S   -0.000000   0.000000  -0.000000   0.000000  -0.000000
    3  LI 1  X   -0.354509   0.534683   0.026971   0.000000  -0.000000
    4  LI 1  Y    0.531848   0.355435  -0.055621   0.000000  -0.000000
    5  LI 1  Z    0.061246   0.008369   0.639115   0.000000  -0.000000
    6  LI 1  S   -0.000000   0.000000  -0.000000   0.000000  -0.000000
    7  LI 1  X   -1.715063   2.586720   0.130483   0.000000  -0.000000
    8  LI 1  Y    2.573005   1.719543  -0.269087   0.000000  -0.000000
    9  LI 1  Z    0.296302   0.040487   3.091950   0.000000  -0.000000
   10  LI 1  S   -0.000000   0.000000  -0.000000   0.000000  -0.000000
   11  LI 1  X    0.350286  -0.528314  -0.026650   0.000000  -0.000000
   12  LI 1  Y   -0.525512  -0.351201   0.054959   0.000000  -0.000000
   13  LI 1  Z   -0.060517  -0.008269  -0.631502   0.000000  -0.000000
   14  LI 1 XX   -0.000000   0.000000  -0.000000  -0.000061  -0.034819
   15  LI 1 YY   -0.000000   0.000000  -0.000000  -0.004539   0.031589
   16  LI 1 ZZ   -0.000000   0.000000  -0.000000   0.004600   0.003229
   17  LI 1 XY   -0.000000   0.000000  -0.000000  -0.166491  -0.630152
   18  LI 1 XZ   -0.000000   0.000000  -0.000000   1.007520  -0.475124
   19  LI 1 YZ   -0.000000   0.000000  -0.000000   0.468171   0.798569
   20  LI 1 XX   -0.000000   0.000000  -0.000000   0.000025   0.014353
   21  LI 1 YY   -0.000000   0.000000  -0.000000   0.001871  -0.013022
   22  LI 1 ZZ   -0.000000   0.000000  -0.000000  -0.001896  -0.001331
   23  LI 1 XY   -0.000000   0.000000  -0.000000   0.068631   0.259763
   24  LI 1 XZ   -0.000000   0.000000  -0.000000  -0.415322   0.195856
   25  LI 1 YZ   -0.000000   0.000000  -0.000000  -0.192990  -0.329188
   26  LI 1 XXX   1.172767  -1.768810  -0.089225   0.000000  -0.000000
   27  LI 1 YYY  -1.759431  -1.175831   0.184003   0.000000  -0.000000
   28  LI 1 ZZZ  -0.202612  -0.027685  -2.114288   0.000000  -0.000000
   29  LI 1 XXY  -0.786842  -0.525848   0.082289   0.000000  -0.000000
   30  LI 1 XXZ  -0.090611  -0.012381  -0.945539   0.000000  -0.000000
   31  LI 1 YYX   0.524478  -0.791036  -0.039903   0.000000  -0.000000
   32  LI 1 YYZ  -0.090611  -0.012381  -0.945539   0.000000  -0.000000
   33  LI 1 ZZX   0.524478  -0.791036  -0.039903   0.000000  -0.000000
   34  LI 1 ZZY  -0.786842  -0.525848   0.082289   0.000000  -0.000000
   35  LI 1 XYZ  -0.000000   0.000000  -0.000000   0.000000  -0.000000

                     31         32         33         34         35
                    1.3145     1.3145     1.3145     1.6236     4.8771
                     A          A          A          A          A   
    1  LI 1  S   -0.000000   0.000000  -0.000000   0.709577  -1.617671
    2  LI 1  S   -0.000000   0.000000  -0.000000  -3.636253   1.202456
    3  LI 1  X   -0.000000   0.000000  -0.000000   0.000000  -0.000000
    4  LI 1  Y   -0.000000   0.000000  -0.000000   0.000000  -0.000000
    5  LI 1  Z   -0.000000   0.000000  -0.000000   0.000000  -0.000000
    6  LI 1  S   -0.000000   0.000000  -0.000000  21.757032   4.989172
    7  LI 1  X   -0.000000   0.000000  -0.000000   0.000000  -0.000000
    8  LI 1  Y   -0.000000   0.000000  -0.000000   0.000000  -0.000000
    9  LI 1  Z   -0.000000   0.000000  -0.000000   0.000000  -0.000000
   10  LI 1  S   -0.000000   0.000000  -0.000000  -0.675865  -0.326419
   11  LI 1  X   -0.000000   0.000000  -0.000000   0.000000  -0.000000
   12  LI 1  Y   -0.000000   0.000000  -0.000000   0.000000  -0.000000
   13  LI 1  Z   -0.000000   0.000000  -0.000000   0.000000  -0.000000
   14  LI 1 XX   -0.257189   0.988203  -0.467038  -3.637045  -1.097510
   15  LI 1 YY    0.236108  -0.883792  -0.651286  -3.637045  -1.097510
   16  LI 1 ZZ    0.021080  -0.104411   1.118325  -3.637045  -1.097510
   17  LI 1 XY    0.890069   0.212046   0.005524   0.000000  -0.000000
   18  LI 1 XZ   -0.134948  -0.054304  -0.005298   0.000000  -0.000000
   19  LI 1 YZ    0.608305   0.187330   0.001792   0.000000  -0.000000
   20  LI 1 XX    0.106019  -0.407359   0.192523  -6.812661  -1.411327
   21  LI 1 YY   -0.097329   0.364318   0.268475  -6.812661  -1.411327
   22  LI 1 ZZ   -0.008690   0.043040  -0.460998  -6.812661  -1.411327
   23  LI 1 XY   -0.366906  -0.087410  -0.002277   0.000000  -0.000000
   24  LI 1 XZ    0.055629   0.022385   0.002184   0.000000  -0.000000
   25  LI 1 YZ   -0.250757  -0.077221  -0.000739   0.000000  -0.000000
   26  LI 1 XXX  -0.000000   0.000000  -0.000000   0.000000  -0.000000
   27  LI 1 YYY  -0.000000   0.000000  -0.000000   0.000000  -0.000000
   28  LI 1 ZZZ  -0.000000   0.000000  -0.000000   0.000000  -0.000000
   29  LI 1 XXY  -0.000000   0.000000  -0.000000   0.000000  -0.000000
   30  LI 1 XXZ  -0.000000   0.000000  -0.000000   0.000000  -0.000000
   31  LI 1 YYX  -0.000000   0.000000  -0.000000   0.000000  -0.000000
   32  LI 1 YYZ  -0.000000   0.000000  -0.000000   0.000000  -0.000000
   33  LI 1 ZZX  -0.000000   0.000000  -0.000000   0.000000  -0.000000
   34  LI 1 ZZY  -0.000000   0.000000  -0.000000   0.000000  -0.000000
   35  LI 1 XYZ  -0.000000   0.000000  -0.000000   0.000000  -0.000000
 ...... END OF UHF CALCULATION ......
 STEP CPU TIME =     0.01 TOTAL CPU TIME =          0.0 (      0.0 MIN)
 TOTAL WALL CLOCK TIME=          0.0 SECONDS, CPU UTILIZATION IS    66.67%

     ----------------------------------------------------------------
     PROPERTY VALUES FOR THE UHF   SELF-CONSISTENT FIELD WAVEFUNCTION
     ----------------------------------------------------------------

          -----------------
          ENERGY COMPONENTS
          -----------------

         WAVEFUNCTION NORMALIZATION =       1.0000000000

                ONE ELECTRON ENERGY =      -9.7129815242
                TWO ELECTRON ENERGY =       2.2808821796
           NUCLEAR REPULSION ENERGY =       0.0000000000
                                      ------------------
                       TOTAL ENERGY =      -7.4320993446

 ELECTRON-ELECTRON POTENTIAL ENERGY =       2.2808821796
  NUCLEUS-ELECTRON POTENTIAL ENERGY =     -17.1430893883
   NUCLEUS-NUCLEUS POTENTIAL ENERGY =       0.0000000000
                                      ------------------
             TOTAL POTENTIAL ENERGY =     -14.8622072087
               TOTAL KINETIC ENERGY =       7.4301078641
                 VIRIAL RATIO (V/T) =       2.0002680285

          ---------------------------------------
          MULLIKEN AND LOWDIN POPULATION ANALYSES
          ---------------------------------------

     ATOMIC MULLIKEN POPULATION IN EACH MOLECULAR ORBITAL
        ALPHA ORBITALS

                      1          2

                  1.000000   1.000000

    1             1.000000   1.000000

     ATOMIC MULLIKEN POPULATION IN EACH MOLECULAR ORBITAL
         BETA ORBITALS

                      1

                  1.000000

    1             1.000000

     ATOMIC SPIN POPULATION (ALPHA MINUS BETA)
       ATOM         MULL.POP.                    LOW.POP.
    1 LI            1.000000                     1.000000


          ********* ALL ELECTRONS ********

               ----- POPULATIONS IN EACH AO -----
                             MULLIKEN      LOWDIN
              1  LI 1  S      1.20012     1.11284
              2  LI 1  S      0.79732     0.83857
              3  LI 1  X      0.00000     0.00000
              4  LI 1  Y      0.00000     0.00000
              5  LI 1  Z      0.00000     0.00000
              6  LI 1  S      0.76610     0.24745
              7  LI 1  X      0.00000     0.00000
              8  LI 1  Y      0.00000     0.00000
              9  LI 1  Z      0.00000     0.00000
             10  LI 1  S      0.35542     0.28068
             11  LI 1  X      0.00000     0.00000
             12  LI 1  Y      0.00000     0.00000
             13  LI 1  Z      0.00000     0.00000
             14  LI 1 XX     -0.00957     0.04814
             15  LI 1 YY     -0.00957     0.04814
             16  LI 1 ZZ     -0.00957     0.04814
             17  LI 1 XY      0.00000     0.00000
             18  LI 1 XZ      0.00000     0.00000
             19  LI 1 YZ      0.00000     0.00000
             20  LI 1 XX     -0.03008     0.12534
             21  LI 1 YY     -0.03008     0.12534
             22  LI 1 ZZ     -0.03008     0.12534
             23  LI 1 XY      0.00000     0.00000
             24  LI 1 XZ      0.00000     0.00000
             25  LI 1 YZ      0.00000     0.00000
             26  LI 1 XXX     0.00000     0.00000
             27  LI 1 YYY     0.00000     0.00000
             28  LI 1 ZZZ     0.00000     0.00000
             29  LI 1 XXY     0.00000     0.00000
             30  LI 1 XXZ     0.00000     0.00000
             31  LI 1 YYX     0.00000     0.00000
             32  LI 1 YYZ     0.00000     0.00000
             33  LI 1 ZZX     0.00000     0.00000
             34  LI 1 ZZY     0.00000     0.00000
             35  LI 1 XYZ     0.00000     0.00000

          ----- MULLIKEN ATOMIC OVERLAP POPULATIONS -----
          (OFF-DIAGONAL ELEMENTS NEED TO BE MULTIPLIED BY 2)

             1

    1    3.0000000

          TOTAL MULLIKEN AND LOWDIN ATOMIC POPULATIONS
       ATOM         MULL.POP.    CHARGE          LOW.POP.     CHARGE
    1 LI            3.000000    0.000000         3.000000   -0.000000

          -------------------------------
          BOND ORDER AND VALENCE ANALYSIS     BOND ORDER THRESHOLD=0.050
          -------------------------------

                   BOND                       BOND                       BOND
  ATOM PAIR DIST  ORDER      ATOM PAIR DIST  ORDER      ATOM PAIR DIST  ORDER

                       TOTAL       BONDED        FREE
      ATOM            VALENCE     VALENCE     VALENCE
    1 LI                1.000       0.000       1.000

          -----------------------------------------
          ATOMIC SPIN DENSITY AT THE NUCLEUS (A.U.)
          -----------------------------------------
                            SPIN DENS    ALPHA DENS     BETA DENS
    1  LI           3.0     0.2204834       6.62319       6.40271

          ---------------------
          ELECTROSTATIC MOMENTS
          ---------------------

 POINT   1           X           Y           Z (BOHR)    CHARGE
                 0.000000    0.000000    0.000000        0.00 (A.U.)
         DX          DY          DZ         /D/  (DEBYE)
     0.000000    0.000000    0.000000    0.000000
 ...... END OF PROPERTY EVALUATION ......
 STEP CPU TIME =     0.00 TOTAL CPU TIME =          0.0 (      0.0 MIN)
 TOTAL WALL CLOCK TIME=          0.0 SECONDS, CPU UTILIZATION IS    66.67%
               580000  WORDS OF DYNAMIC MEMORY USED
 EXECUTION OF GAMESS TERMINATED NORMALLY Thu Jun 13 22:53:44 2019
 DDI: 263640 bytes (0.3 MB / 0 MWords) used by master data server.

 ----------------------------------------
 CPU timing information for all processes
 ========================================
 0: 0.20 + 0.08 = 0.28
 ----------------------------------------
 ddikick.x: exited gracefully.
----- accounting info -----
Files used on the master node amlan-PT-3420 were:
-rw-rw-r-- 1 akroy akroy   41068 Jun 13 22:53 /tmp/li_atom_6_311g2df2pd_all.dat
-rw-rw-r-- 1 akroy akroy     253 Jun 13 22:53 /tmp/li_atom_6_311g2df2pd_all.F05
-rw-rw-r-- 1 akroy akroy  360032 Jun 13 22:53 /tmp/li_atom_6_311g2df2pd_all.F08
-rw-rw-r-- 1 akroy akroy 1930480 Jun 13 22:53 /tmp/li_atom_6_311g2df2pd_all.F10
Thu Jun 13 22:53:47 IST 2019
0.0u 0.0s 0:03.09 0.3% 0+0k 0+16io 0pf+0w
