----- GAMESS execution script 'rungms' -----
This job is running on host amlan-PT-3420
under operating system Linux at Fri Jun 14 00:13:44 IST 2019
Available scratch disk space (Kbyte units) at beginning of the job is
Filesystem      1K-blocks     Used  Available Use% Mounted on
/dev/sda3      1916812448 56943900 1762477036   4% /
GAMESS temporary binary files will be written to /tmp
GAMESS supplementary output files will be written to /tmp
Copying input file c_atom_6_311g2df2pd_all.inp to your run's scratch directory...

 Distributed Data Interface kickoff program.
 Initiating 1 compute processes on 1 nodes to run the following command:
 /home/akroy/gamess/gamess.01.x c_atom_6_311g2df2pd_all 

          ******************************************************
          *         GAMESS VERSION = 30 SEP 2018 (R3)         *
          *             FROM IOWA STATE UNIVERSITY             *
          * M.W.SCHMIDT, K.K.BALDRIDGE, J.A.BOATZ, S.T.ELBERT, *
          *   M.S.GORDON, J.H.JENSEN, S.KOSEKI, N.MATSUNAGA,   *
          *          K.A.NGUYEN, S.J.SU, T.L.WINDUS,           *
          *       TOGETHER WITH M.DUPUIS, J.A.MONTGOMERY       *
          *         J.COMPUT.CHEM.  14, 1347-1363(1993)        *
          **************** 64 BIT LINUX VERSION ****************

  SINCE 1993, STUDENTS AND POSTDOCS WORKING AT IOWA STATE UNIVERSITY
  AND ALSO IN THEIR VARIOUS JOBS AFTER LEAVING ISU HAVE MADE IMPORTANT
  CONTRIBUTIONS TO THE CODE:
     IVANA ADAMOVIC, CHRISTINE AIKENS, YURI ALEXEEV, POOJA ARORA,
     ANDREY ASADCHEV, ROB BELL, PRADIPTA BANDYOPADHYAY, JONATHAN BENTZ,
     BRETT BODE, KURT BRORSEN, CALEB CARLIN, GALINA CHABAN, WEI CHEN,
     CHEOL HO CHOI, PAUL DAY, ALBERT DEFUSCO, NUWAN DESILVA, TIM DUDLEY,
     DMITRI FEDOROV, ALEX FINDLATER, GRAHAM FLETCHER, MARK FREITAG,
     KURT GLAESEMANN, ANASTASIA GUNINA,
     DAN KEMP, GRANT MERRILL, NORIYUKI MINEZAWA, JONATHAN MULLIN,
     TAKESHI NAGATA, SEAN NEDD, HEATHER NETZLOFF, BOSILJKA NJEGIC, RYAN OLSON,
     MIKE PAK, BUU PHAM,
     SPENCER PRUITT, LUKE ROSKOP, JIM SHOEMAKER, LYUDMILA SLIPCHENKO,
     TONY SMITH, SAROM SOK LEANG, JIE SONG, TETSUYA TAKETSUGU, SIMON WEBB,
     PENG XU, SOOHAENG YOO, FEDERICO ZAHARIEV

  ADDITIONAL CODE HAS BEEN PROVIDED BY COLLABORATORS IN OTHER GROUPS:
     IOWA STATE UNIVERSITY:
          JOE IVANIC, AARON WEST, LAIMUTIS BYTAUTAS, KLAUS RUEDENBERG
     UNIVERSITY OF TOKYO: KIMIHIKO HIRAO, TAKAHITO NAKAJIMA,
          TAKAO TSUNEDA, MUNEAKI KAMIYA, SUSUMU YANAGISAWA,
          KIYOSHI YAGI, MAHITO CHIBA, SEIKEN TOKURA, NAOAKI KAWAKAMI
     UNIVERSITY OF AARHUS: FRANK JENSEN
     UNIVERSITY OF IOWA: VISVALDAS KAIRYS, HUI LI
     NATIONAL INST. OF STANDARDS AND TECHNOLOGY: WALT STEVENS, DAVID GARMER
     UNIVERSITY OF PISA: BENEDETTA MENNUCCI, JACOPO TOMASI
     UNIVERSITY OF MEMPHIS: HENRY KURTZ, PRAKASHAN KORAMBATH
     UNIVERSITY OF ALBERTA: TOBY ZENG, MARIUSZ KLOBUKOWSKI
     UNIVERSITY OF NEW ENGLAND: MARK SPACKMAN
     MIE UNIVERSITY: HIROAKI UMEDA
     NAT. INST. OF ADVANCED INDUSTRIAL SCIENCE AND TECHNOLOGY: KAZUO KITAURA
     MICHIGAN STATE UNIVERSITY:
          KAROL KOWALSKI, MARTA WLOCH, JEFFREY GOUR, JESSE LUTZ,
          WEI LI, JUN SHEN, J. EMILIANO DEUSTUA, PIOTR PIECUCH
     UNIVERSITY OF MINNESOTA:
          YINAN SHU
     UNIVERSITY OF SILESIA: MONIKA MUSIAL, STANISLAW KUCHARSKI
     FACULTES UNIVERSITAIRES NOTRE-DAME DE LA PAIX:
          OLIVIER QUINET, BENOIT CHAMPAGNE
     UNIVERSITY OF CALIFORNIA - SANTA BARBARA: BERNARD KIRTMAN
     INSTITUTE FOR MOLECULAR SCIENCE:
          KAZUYA ISHIMURA, MICHIO KATOUDA, AND SHIGERU NAGASE
     UNIVERSITY OF NOTRE DAME: ANNA POMOGAEVA, DAN CHIPMAN
     KYUSHU UNIVERSITY:
          HARUYUKI NAKANO,
          FENG LONG GU, JACEK KORCHOWIEC, MARCIN MAKOWSKI, AND YURIKO AOKI,
          HIROTOSHI MORI AND EISAKU MIYOSHI
     PENNSYLVANIA STATE UNIVERSITY:
          TZVETELIN IORDANOV, CHET SWALINA, JONATHAN SKONE,
          SHARON HAMMES-SCHIFFER
     WASEDA UNIVERSITY:
          MASATO KOBAYASHI, TOMOKO AKAMA, TSUGUKI TOUMA,
          TAKESHI YOSHIKAWA, YASUHIRO IKABATA, JUNJI SEINO,
          YUYA NAKAJIMA, HIROMI NAKAI
     NANJING UNIVERSITY: SHUHUA LI
     UNIVERSITY OF NEBRASKA:
          PEIFENG SU, DEJUN SI, NANDUN THELLAMUREGE, YALI WANG, HUI LI
     UNIVERSITY OF ZURICH: ROBERTO PEVERATI, KIM BALDRIDGE
     N. COPERNICUS UNIVERSITY AND JACKSON STATE UNIVERSITY:
          MARIA BARYSZ
     UNIVERSITY OF COPENHAGEN: Jimmy Kromann, CASPER STEINMANN
     TOKYO INSTITUTE OF TECHNOLOGY: HIROYA NAKATA
     NAGOYA UNIVERSITY: YOSHIO NISHIMOTO, STEPHAN IRLE
     MOSCOW STATE UNIVERSITY: VLADIMIR MIRONOV

 EXECUTION OF GAMESS BEGUN Fri Jun 14 00:13:44 2019

            ECHO OF THE FIRST FEW INPUT CARDS -
 INPUT CARD> $CONTRL SCFTYP=RHF COORD=CART MULT=1 RUNTYP=ENERGY  $END                       
 INPUT CARD> $SYSTEM TIMLIM=2000 $END                                                       
 INPUT CARD> $DFT METHOD=GRID DFTTYP=NONE $END                                              
 INPUT CARD> $BASIS EXTFIL=.TRUE. GBASIS=6311G2DF $END                                      
 INPUT CARD> $GUESS GUESS=HUCKEL $END                                                       
 INPUT CARD> $DATA                                                                          
 INPUT CARD>C                                                                               
 INPUT CARD>C1                                                                              
 INPUT CARD>C   6.0   0.0000   0.0000   0.0000                                              
 INPUT CARD> $END                                                                           
 INPUT CARD>                                                                                
    1000000 WORDS OF MEMORY AVAILABLE


                    * * * WARNING * * *
 OLD KEYWORD COORD=CART SELECTED, AUTOMATICALLY CHANGED TO COORD=PRINAXIS.
 YOUR MOLECULE'S COORDINATES WILL BE CHANGED TO PRINCIPAL AXES BY
   A) TRANSLATION TO THE CENTER OF MASS, THEN
   B) ROTATION TO HAVE A DIAGONAL MOMENT OF INERTIA TENSOR.

 HOWEVER, NOTHING ELSE IN YOUR INPUT WILL BE ROTATED IN THE SAME WAY,
 SO IF YOU HAVE A $VEC, $VIB, $GRAD, $HESS, EFP PARTICLE COORDINATES,
 OR ANYTHING ELSE THAT DEPENDS ON THE INITIAL ORIENTATION, THAT DATA
 WILL NOT BE USED CORRECTLY IN THIS RUN.

 THE PURPOSE OF COORD=PRINAXIS IS TO BE USED ONCE, ONLY AT THE VERY
 BEGINNING OF A SERIES OF COMPUTATIONS, PERHAPS TO FIND THE SYMMETRY
 UNIQUE ATOMS FROM AN ARBITRARY INITIAL ORIENTATION.

 AFTER THE FIRST RUN, YOU SHOULD USE ONLY COORD=UNIQUE, TO ENSURE THAT
 THE COORDINATES WHICH YOU READ IN ARE THE COORDINATES THAT ARE USED.


     $BASIS REQUESTS READING THE "6311G2DF" BASIS SET FROM AN EXTERNAL FILE


     RUN TITLE
     ---------
 C                                                                               

 THE POINT GROUP OF THE MOLECULE IS C1      
 THE ORDER OF THE PRINCIPAL AXIS IS     0

 THE MOMENTS OF INERTIA ARE (AMU-ANGSTROM**2)
 IXX=     0.000   IYY=     0.000   IZZ=     0.000

 THE EXTERNAL BASIS SET FILE BEING READ IS
     "/home/akroy/gamess/EXTFILE.txt"

 ATOM      ATOMIC                      COORDINATES (BOHR)
           CHARGE         X                   Y                   Z
 C           6.0     0.0000000000        0.0000000000        0.0000000000

          INTERNUCLEAR DISTANCES (ANGS.)
          ------------------------------

                1 C     

   1 C       0.0000000  

  * ... LESS THAN  3.000


     ATOMIC BASIS SET
     ----------------
 THE CONTRACTED PRIMITIVE FUNCTIONS HAVE BEEN UNNORMALIZED
 THE CONTRACTED BASIS FUNCTIONS ARE NOW NORMALIZED TO UNITY

  SHELL TYPE  PRIMITIVE        EXPONENT          CONTRACTION COEFFICIENT(S)

 C         

      1   S       1          4563.2400000    0.001966650249
      1   S       2           682.0240000    0.015230601932
      1   S       3           154.9730000    0.076126909656
      1   S       4            44.4553000    0.260801033080
      1   S       5            13.0290000    0.616462078191
      1   S       6             1.8277300    0.221006028032

      2   L       7            20.9642000    0.114660080729    0.040248692673
      2   L       8             4.8033100    0.919999647749    0.237593956746
      2   L       9             1.4593300   -0.003030682134    0.815853851473

      3   L      10             0.4834560    1.000000000000    1.000000000000

      4   L      11             0.1455850    1.000000000000    1.000000000000

      5   D      12             1.2520000    1.000000000000

      6   D      13             0.3130000    1.000000000000

      7   F      14             0.8000000    1.000000000000

 TOTAL NUMBER OF BASIS SET SHELLS             =    7
 NUMBER OF CARTESIAN GAUSSIAN BASIS FUNCTIONS =   35
 NUMBER OF ELECTRONS                          =    6
 CHARGE OF MOLECULE                           =    0
 SPIN MULTIPLICITY                            =    1
 NUMBER OF OCCUPIED ORBITALS (ALPHA)          =    3
 NUMBER OF OCCUPIED ORBITALS (BETA )          =    3
 TOTAL NUMBER OF ATOMS                        =    1
 THE NUCLEAR REPULSION ENERGY IS        0.0000000000

 THIS MOLECULE IS RECOGNIZED AS BEING LINEAR,
 ORBITAL LZ DEGENERACY TOLERANCE ETOLLZ= 1.00E-06

     $CONTRL OPTIONS
     ---------------
 SCFTYP=RHF          RUNTYP=ENERGY       EXETYP=RUN     
 MPLEVL=       0     CITYP =NONE         CCTYP =NONE         VBTYP =NONE    
 DFTTYP=NONE         TDDFT =NONE    
 MULT  =       1     ICHARG=       0     NZVAR =       0     COORD =PRINAXIS
 PP    =NONE         RELWFN=NONE         LOCAL =NONE         NUMGRD=       F
 ISPHER=      -1     NOSYM =       0     MAXIT =      30     UNITS =ANGS    
 PLTORB=       F     MOLPLT=       F     AIMPAC=       F     FRIEND=        
 NPRINT=       7     IREST =       0     GEOM  =INPUT   
 NORMF =       0     NORMP =       0     ITOL  =      20     ICUT  =       9
 INTTYP=BEST         GRDTYP=BEST         QMTTOL= 1.0E-06

     $SYSTEM OPTIONS
     ---------------
  REPLICATED MEMORY=     1000000 WORDS (ON EVERY NODE).
 DISTRIBUTED MEMDDI=           0 MILLION WORDS IN AGGREGATE,
 MEMDDI DISTRIBUTED OVER   1 PROCESSORS IS           0 WORDS/PROCESSOR.
 TOTAL MEMORY REQUESTED ON EACH PROCESSOR=     1000000 WORDS.
 TIMLIM=        2000.00 MINUTES, OR       1.4 DAYS.
 PARALL= F  BALTYP=  DLB     KDIAG=    0  COREFL= F
 MXSEQ2=     300 MXSEQ3=     150  mem10=         0

          ----------------
          PROPERTIES INPUT
          ----------------

     MOMENTS            FIELD           POTENTIAL          DENSITY
 IEMOM =       1   IEFLD =       0   IEPOT =       0   IEDEN =       0
 WHERE =COMASS     WHERE =NUCLEI     WHERE =NUCLEI     WHERE =NUCLEI  
 OUTPUT=BOTH       OUTPUT=BOTH       OUTPUT=BOTH       OUTPUT=BOTH    
 IEMINT=       0   IEFINT=       0                     IEDINT=       0
                                                       MORB  =       0
          EXTRAPOLATION IN EFFECT
          SOSCF IN EFFECT
 ORBITAL PRINTING OPTION: NPREO=     1    35     2     1

     -------------------------------
     INTEGRAL TRANSFORMATION OPTIONS
     -------------------------------
     NWORD  =            0
     CUTOFF = 1.0E-09     MPTRAN =       0
     DIRTRF =       F     AOINTS =DUP     

          ----------------------
          INTEGRAL INPUT OPTIONS
          ----------------------
 NOPK  =       1 NORDER=       0 SCHWRZ=       F

     ------------------------------------------
     THE POINT GROUP IS C1 , NAXIS= 0, ORDER= 1
     ------------------------------------------

     DIMENSIONS OF THE SYMMETRY SUBSPACES ARE
 A   =   35

 ..... DONE SETTING UP THE RUN .....
 STEP CPU TIME =     0.00 TOTAL CPU TIME =          0.0 (      0.0 MIN)
 TOTAL WALL CLOCK TIME=          0.0 SECONDS, CPU UTILIZATION IS     0.00%

          ********************
          1 ELECTRON INTEGRALS
          ********************
 ...... END OF ONE-ELECTRON INTEGRALS ......
 STEP CPU TIME =     0.00 TOTAL CPU TIME =          0.0 (      0.0 MIN)
 TOTAL WALL CLOCK TIME=          0.0 SECONDS, CPU UTILIZATION IS     0.00%

          -------------
          GUESS OPTIONS
          -------------
          GUESS =HUCKEL            NORB  =       0          NORDER=       0
          MIX   =       F          PRTMO =       F          PUNMO =       F
          TOLZ  = 1.0E-08          TOLE  = 1.0E-05
          SYMDEN=       F          PURIFY=       F

 INITIAL GUESS ORBITALS GENERATED BY HUCKEL   ROUTINE.
 HUCKEL GUESS REQUIRES     10008 WORDS.

 SYMMETRIES FOR INITIAL GUESS ORBITALS FOLLOW.   BOTH SET(S).
     3 ORBITALS ARE OCCUPIED (    1 CORE ORBITALS).
     2=A        3=A        4=A        5=A        6=A        7=A        8=A   
     9=A       10=A       11=A       12=A       13=A   
 ...... END OF INITIAL ORBITAL SELECTION ......
 STEP CPU TIME =     0.00 TOTAL CPU TIME =          0.0 (      0.0 MIN)
 TOTAL WALL CLOCK TIME=          0.0 SECONDS, CPU UTILIZATION IS     0.00%

                    ----------------------
                    AO INTEGRAL TECHNOLOGY
                    ----------------------
     S,P,L SHELL ROTATED AXIS INTEGRALS, REPROGRAMMED BY
        KAZUYA ISHIMURA (IMS) AND JOSE SIERRA (SYNSTAR).
     S,P,D,L SHELL ROTATED AXIS INTEGRALS PROGRAMMED BY
        KAZUYA ISHIMURA (INSTITUTE FOR MOLECULAR SCIENCE).
     S,P,D,F,G SHELL TO TOTAL QUARTET ANGULAR MOMENTUM SUM 5,
        ERIC PROGRAM BY GRAHAM FLETCHER (ELORET AND NASA ADVANCED
        SUPERCOMPUTING DIVISION, AMES RESEARCH CENTER).
     S,P,D,F,G,L SHELL GENERAL RYS QUADRATURE PROGRAMMED BY
        MICHEL DUPUIS (PACIFIC NORTHWEST NATIONAL LABORATORY).

          --------------------
          2 ELECTRON INTEGRALS
          --------------------

 THE -PK- OPTION IS OFF, THE INTEGRALS ARE NOT IN SUPERMATRIX FORM.
 STORING   15000 INTEGRALS/RECORD ON DISK, USING 12 BYTES/INTEGRAL.
 TWO ELECTRON INTEGRAL EVALUATION REQUIRES   99128 WORDS OF MEMORY.
 II,JST,KST,LST =  1  1  1  1 NREC =         1 INTLOC =    1
 II,JST,KST,LST =  2  1  1  1 NREC =         1 INTLOC =    2
 II,JST,KST,LST =  3  1  1  1 NREC =         1 INTLOC =   34
 II,JST,KST,LST =  4  1  1  1 NREC =         1 INTLOC =  214
 II,JST,KST,LST =  5  1  1  1 NREC =         1 INTLOC =  776
 II,JST,KST,LST =  6  1  1  1 NREC =         1 INTLOC = 2864
 II,JST,KST,LST =  7  1  1  1 NREC =         1 INTLOC = 7967
 TOTAL NUMBER OF NONZERO TWO-ELECTRON INTEGRALS =               27193
          2 INTEGRAL RECORDS WERE STORED ON DISK FILE  8.
  ...... END OF TWO-ELECTRON INTEGRALS .....
 STEP CPU TIME =     0.02 TOTAL CPU TIME =          0.0 (      0.0 MIN)
 TOTAL WALL CLOCK TIME=          0.0 SECONDS, CPU UTILIZATION IS    66.67%

          --------------------------
                 RHF SCF CALCULATION
          --------------------------

     NUCLEAR ENERGY =         0.0000000000
     MAXIT =   30     NPUNCH=    2
     EXTRAP=T  DAMP=F  SHIFT=F  RSTRCT=F  DIIS=F  DEM=F  SOSCF=T
     DENSITY MATRIX CONV=  1.00E-05
     SOSCF WILL OPTIMIZE      96 ORBITAL ROTATIONS, SOGTOL=   0.250
     MEMORY REQUIRED FOR RHF ITERS=     39449 WORDS.

 ITER EX DEM     TOTAL ENERGY        E CHANGE  DENSITY CHANGE     ORB. GRAD
   1  0  0      -37.5178271764   -37.5178271764   1.590099773   0.000000000
          ---------------START SECOND ORDER SCF---------------
   2  1  0      -37.5996150099    -0.0817878335   0.053844601   0.015739946
   3  2  0      -37.5999288330    -0.0003138231   0.006123648   0.001159271
   4  3  0      -37.5999349001    -0.0000060671   0.000713005   0.000228504
   5  4  0      -37.5999350797    -0.0000001796   0.000244337   0.000070116
   6  5  0      -37.5999350901    -0.0000000104   0.000018386   0.000006340
   7  6  0      -37.5999350902    -0.0000000001   0.000001730   0.000000740
   8  7  0      -37.5999350902    -0.0000000000   0.000000136   0.000000063

          -----------------
          DENSITY CONVERGED
          -----------------
     TIME TO FORM FOCK OPERATORS=       0.0 SECONDS (       0.0 SEC/ITER)
     TIME TO SOLVE SCF EQUATIONS=       0.0 SECONDS (       0.0 SEC/ITER)

 FINAL RHF ENERGY IS      -37.5999350902 AFTER   8 ITERATIONS

 LZ VALUE ANALYSIS FOR THE MOS
 ----------------------------------------
 MO     1 (    1) HAS LZ(WEIGHT)= 0.00(100.0%) 
 MO     2 (    2) HAS LZ(WEIGHT)= 0.00(100.0%) 
 MO     3 (    3) HAS LZ(WEIGHT)= 0.00(100.0%) 
 MO     4 (    4) HAS LZ(WEIGHT)= 0.00(100.0%) 
 MO     5 (    4) HAS LZ(WEIGHT)= 0.00(100.0%) 
 MO     6 (    5) HAS LZ(WEIGHT)= 0.00(100.0%) 
 MO     7 (    6) HAS LZ(WEIGHT)= 0.00(100.0%) 
 MO     8 (    7) HAS LZ(WEIGHT)= 0.00(100.0%) 
 MO     9 (    7) HAS LZ(WEIGHT)= 0.00(100.0%) 
 MO    10 (    8) HAS LZ(WEIGHT)= 0.00(100.0%) 
 MO    11 (    8) HAS LZ(WEIGHT)= 0.00(100.0%) 
 MO    12 (    9) HAS LZ(WEIGHT)= 0.00(100.0%) 
 MO    13 (    9) HAS LZ(WEIGHT)= 0.00(100.0%) 
 MO    14 (   10) HAS LZ(WEIGHT)= 0.00(100.0%) 
 MO    15 (   11) HAS LZ(WEIGHT)= 0.00(100.0%) 
 MO    16 (   12) HAS LZ(WEIGHT)= 0.00(100.0%) 
 MO    17 (   12) HAS LZ(WEIGHT)= 0.00(100.0%) 
 MO    18 (   13) HAS LZ(WEIGHT)= 0.00(100.0%) 
 MO    19 (   14) HAS LZ(WEIGHT)= 0.00(100.0%) 
 MO    20 (   14) HAS LZ(WEIGHT)= 0.00(100.0%) 
 MO    21 (   15) HAS LZ(WEIGHT)= 0.00(100.0%) 
 MO    22 (   15) HAS LZ(WEIGHT)= 0.00(100.0%) 
 MO    23 (   16) HAS LZ(WEIGHT)= 0.00(100.0%) 
 MO    24 (   16) HAS LZ(WEIGHT)= 0.00(100.0%) 
 MO    25 (   17) HAS LZ(WEIGHT)= 0.00(100.0%) 
 MO    26 (   18) HAS LZ(WEIGHT)= 0.00(100.0%) 
 MO    27 (   18) HAS LZ(WEIGHT)= 0.00(100.0%) 
 MO    28 (   19) HAS LZ(WEIGHT)= 0.00(100.0%) 
 MO    29 (   19) HAS LZ(WEIGHT)= 0.00(100.0%) 
 MO    30 (   20) HAS LZ(WEIGHT)= 0.00(100.0%) 
 MO    31 (   21) HAS LZ(WEIGHT)=-0.00( 50.0%)  0.00( 50.0%) 
 MO    32 (   21) HAS LZ(WEIGHT)=-0.00( 50.0%)  0.00( 50.0%) 
 MO    33 (   22) HAS LZ(WEIGHT)= 0.00(100.0%) 
 MO    34 (   23) HAS LZ(WEIGHT)= 0.00(100.0%) 
 MO    35 (   24) HAS LZ(WEIGHT)= 0.00(100.0%) 

          ------------
          EIGENVECTORS
          ------------

                      1          2          3          4          5
                  -11.3540    -0.7186    -0.3531     0.0491     0.0491
                     A          A          A          A          A   
    1  C  1  S    0.563950  -0.123297   0.000000  -0.000000  -0.000000
    2  C  1  S    0.466822  -0.203743   0.000000  -0.000000  -0.000000
    3  C  1  X   -0.000000  -0.000000   0.287543  -0.000000  -0.000000
    4  C  1  Y   -0.000000  -0.000000   0.000000   0.164265  -0.162687
    5  C  1  Z   -0.000000  -0.000000   0.000000   0.162687   0.164265
    6  C  1  S    0.002425   0.608096   0.000000  -0.000000  -0.000000
    7  C  1  X   -0.000000  -0.000000   0.423659  -0.000000  -0.000000
    8  C  1  Y   -0.000000  -0.000000   0.000000   0.171446  -0.169800
    9  C  1  Z   -0.000000  -0.000000   0.000000   0.169800   0.171446
   10  C  1  S    0.000069   0.454215   0.000000  -0.000000  -0.000000
   11  C  1  X   -0.000000  -0.000000   0.483331  -0.000000  -0.000000
   12  C  1  Y   -0.000000  -0.000000   0.000000   0.483132  -0.478493
   13  C  1  Z   -0.000000  -0.000000   0.000000   0.478493   0.483132
   14  C  1 XX    0.000023   0.006062   0.000000  -0.000000  -0.000000
   15  C  1 YY   -0.000635   0.004315   0.000000  -0.000000  -0.000000
   16  C  1 ZZ   -0.000635   0.004315   0.000000  -0.000000  -0.000000
   17  C  1 XY   -0.000000  -0.000000   0.000000  -0.000000  -0.000000
   18  C  1 XZ   -0.000000  -0.000000   0.000000  -0.000000  -0.000000
   19  C  1 YZ   -0.000000  -0.000000   0.000000  -0.000000  -0.000000
   20  C  1 XX    0.000534   0.030732   0.000000  -0.000000  -0.000000
   21  C  1 YY   -0.000203   0.018667   0.000000  -0.000000  -0.000000
   22  C  1 ZZ   -0.000203   0.018667   0.000000  -0.000000  -0.000000
   23  C  1 XY   -0.000000  -0.000000   0.000000  -0.000000  -0.000000
   24  C  1 XZ   -0.000000  -0.000000   0.000000  -0.000000  -0.000000
   25  C  1 YZ   -0.000000  -0.000000   0.000000  -0.000000  -0.000000
   26  C  1 XXX  -0.000000  -0.000000  -0.003259  -0.000000  -0.000000
   27  C  1 YYY  -0.000000  -0.000000   0.000000   0.024744  -0.024506
   28  C  1 ZZZ  -0.000000  -0.000000   0.000000   0.024506   0.024744
   29  C  1 XXY  -0.000000  -0.000000   0.000000   0.002860  -0.002832
   30  C  1 XXZ  -0.000000  -0.000000   0.000000   0.002832   0.002860
   31  C  1 YYX  -0.000000  -0.000000   0.011566  -0.000000  -0.000000
   32  C  1 YYZ  -0.000000  -0.000000   0.000000   0.010959   0.011066
   33  C  1 ZZX  -0.000000  -0.000000   0.011566  -0.000000  -0.000000
   34  C  1 ZZY  -0.000000  -0.000000   0.000000   0.011066  -0.010959
   35  C  1 XYZ  -0.000000  -0.000000   0.000000  -0.000000  -0.000000

                      6          7          8          9         10
                    0.3127     0.5906     0.6191     0.6191     0.8445
                     A          A          A          A          A   
    1  C  1  S    0.065618   0.000000   0.000000   0.000000   0.000000
    2  C  1  S    0.067047   0.000000   0.000000   0.000000   0.000000
    3  C  1  X    0.000000  -0.171930   0.000000   0.000000   0.000000
    4  C  1  Y    0.000000   0.000000   0.169512   0.101798   0.000000
    5  C  1  Z    0.000000   0.000000  -0.101798   0.169512   0.000000
    6  C  1  S   -2.141557   0.000000   0.000000   0.000000   0.000000
    7  C  1  X    0.000000  -1.109994   0.000000   0.000000   0.000000
    8  C  1  Y    0.000000   0.000000   1.017577   0.611089   0.000000
    9  C  1  Z    0.000000   0.000000  -0.611089   1.017577   0.000000
   10  C  1  S    4.584832   0.000000   0.000000   0.000000   0.000000
   11  C  1  X    0.000000   1.200034   0.000000   0.000000   0.000000
   12  C  1  Y    0.000000   0.000000  -0.947062  -0.568743   0.000000
   13  C  1  Z    0.000000   0.000000   0.568743  -0.947062   0.000000
   14  C  1 XX   -0.043533   0.000000   0.000000   0.000000   0.000000
   15  C  1 YY   -0.052740   0.000000   0.000000   0.000000  -0.011950
   16  C  1 ZZ   -0.052740   0.000000   0.000000   0.000000   0.011950
   17  C  1 XY    0.000000   0.000000   0.000000   0.000000   0.000000
   18  C  1 XZ    0.000000   0.000000   0.000000   0.000000   0.000000
   19  C  1 YZ    0.000000   0.000000   0.000000   0.000000  -0.002425
   20  C  1 XX   -1.228847   0.000000   0.000000   0.000000   0.000000
   21  C  1 YY   -1.209003   0.000000   0.000000   0.000000   0.858363
   22  C  1 ZZ   -1.209003   0.000000   0.000000   0.000000  -0.858363
   23  C  1 XY    0.000000   0.000000   0.000000   0.000000   0.000000
   24  C  1 XZ    0.000000   0.000000   0.000000   0.000000   0.000000
   25  C  1 YZ    0.000000   0.000000   0.000000   0.000000   0.174168
   26  C  1 XXX   0.000000   0.121876   0.000000   0.000000   0.000000
   27  C  1 YYY   0.000000   0.000000  -0.089045  -0.053475   0.000000
   28  C  1 ZZZ   0.000000   0.000000   0.053475  -0.089045   0.000000
   29  C  1 XXY   0.000000   0.000000  -0.048123  -0.028900   0.000000
   30  C  1 XXZ   0.000000   0.000000   0.028900  -0.048123   0.000000
   31  C  1 YYX   0.000000   0.047173   0.000000   0.000000   0.000000
   32  C  1 YYZ   0.000000   0.000000   0.023915  -0.039822   0.000000
   33  C  1 ZZX   0.000000   0.047173   0.000000   0.000000   0.000000
   34  C  1 ZZY   0.000000   0.000000  -0.039822  -0.023915   0.000000
   35  C  1 XYZ   0.000000   0.000000   0.000000   0.000000   0.000000

                     11         12         13         14         15
                    0.8445     0.8600     0.8600     0.8660     1.3989
                     A          A          A          A          A   
    1  C  1  S   -0.000000  -0.000000   0.000000  -0.003595  -0.124517
    2  C  1  S   -0.000000  -0.000000   0.000000  -0.010475  -0.349714
    3  C  1  X   -0.000000  -0.000000   0.000000   0.000000  -0.000000
    4  C  1  Y   -0.000000  -0.000000   0.000000   0.000000  -0.000000
    5  C  1  Z   -0.000000  -0.000000   0.000000   0.000000  -0.000000
    6  C  1  S   -0.000000  -0.000000   0.000000  -0.043546  -0.338133
    7  C  1  X   -0.000000  -0.000000   0.000000   0.000000  -0.000000
    8  C  1  Y   -0.000000  -0.000000   0.000000   0.000000  -0.000000
    9  C  1  Z   -0.000000  -0.000000   0.000000   0.000000  -0.000000
   10  C  1  S   -0.000000  -0.000000   0.000000   0.211351   4.364724
   11  C  1  X   -0.000000  -0.000000   0.000000   0.000000  -0.000000
   12  C  1  Y   -0.000000  -0.000000   0.000000   0.000000  -0.000000
   13  C  1  Z   -0.000000  -0.000000   0.000000   0.000000  -0.000000
   14  C  1 XX   -0.000000  -0.000000   0.000000  -0.009856  -0.091976
   15  C  1 YY    0.002100  -0.000000   0.000000   0.001413  -0.069503
   16  C  1 ZZ   -0.002100  -0.000000   0.000000   0.001413  -0.069503
   17  C  1 XY   -0.000000  -0.004321  -0.007252   0.000000  -0.000000
   18  C  1 XZ   -0.000000  -0.007252   0.004321   0.000000  -0.000000
   19  C  1 YZ   -0.013799  -0.000000   0.000000   0.000000  -0.000000
   20  C  1 XX   -0.000000  -0.000000   0.000000   0.916289  -1.951327
   21  C  1 YY   -0.150834  -0.000000   0.000000  -0.587586  -1.903680
   22  C  1 ZZ    0.150834  -0.000000   0.000000  -0.587586  -1.903680
   23  C  1 XY   -0.000000   0.513766   0.862400   0.000000  -0.000000
   24  C  1 XZ   -0.000000   0.862400  -0.513766   0.000000  -0.000000
   25  C  1 YZ    0.991152  -0.000000   0.000000   0.000000  -0.000000
   26  C  1 XXX  -0.000000  -0.000000   0.000000   0.000000  -0.000000
   27  C  1 YYY  -0.000000  -0.000000   0.000000   0.000000  -0.000000
   28  C  1 ZZZ  -0.000000  -0.000000   0.000000   0.000000  -0.000000
   29  C  1 XXY  -0.000000  -0.000000   0.000000   0.000000  -0.000000
   30  C  1 XXZ  -0.000000  -0.000000   0.000000   0.000000  -0.000000
   31  C  1 YYX  -0.000000  -0.000000   0.000000   0.000000  -0.000000
   32  C  1 YYZ  -0.000000  -0.000000   0.000000   0.000000  -0.000000
   33  C  1 ZZX  -0.000000  -0.000000   0.000000   0.000000  -0.000000
   34  C  1 ZZY  -0.000000  -0.000000   0.000000   0.000000  -0.000000
   35  C  1 XYZ  -0.000000  -0.000000   0.000000   0.000000  -0.000000

                     16         17         18         19         20
                    2.9204     2.9204     2.9479     3.0554     3.0554
                     A          A          A          A          A   
    1  C  1  S   -0.000000  -0.000000   0.000000   0.000000   0.000000
    2  C  1  S   -0.000000  -0.000000   0.000000   0.000000   0.000000
    3  C  1  X   -0.000000  -0.000000   1.151422   0.000000   0.000000
    4  C  1  Y   -0.525499   1.015957   0.000000   0.000000   0.000000
    5  C  1  Z    1.015957   0.525499   0.000000   0.000000   0.000000
    6  C  1  S   -0.000000  -0.000000   0.000000   0.000000   0.000000
    7  C  1  X   -0.000000  -0.000000  -0.792220   0.000000   0.000000
    8  C  1  Y    0.315586  -0.610129   0.000000   0.000000   0.000000
    9  C  1  Z   -0.610129  -0.315586   0.000000   0.000000   0.000000
   10  C  1  S   -0.000000  -0.000000   0.000000   0.000000   0.000000
   11  C  1  X   -0.000000  -0.000000   0.508283   0.000000   0.000000
   12  C  1  Y   -0.227189   0.439228   0.000000   0.000000   0.000000
   13  C  1  Z    0.439228   0.227189   0.000000   0.000000   0.000000
   14  C  1 XX   -0.000000  -0.000000   0.000000   0.000000   0.000000
   15  C  1 YY   -0.000000  -0.000000   0.000000   0.000000   0.000000
   16  C  1 ZZ   -0.000000  -0.000000   0.000000   0.000000   0.000000
   17  C  1 XY   -0.000000  -0.000000   0.000000   0.000000   0.000000
   18  C  1 XZ   -0.000000  -0.000000   0.000000   0.000000   0.000000
   19  C  1 YZ   -0.000000  -0.000000   0.000000   0.000000   0.000000
   20  C  1 XX   -0.000000  -0.000000   0.000000   0.000000   0.000000
   21  C  1 YY   -0.000000  -0.000000   0.000000   0.000000   0.000000
   22  C  1 ZZ   -0.000000  -0.000000   0.000000   0.000000   0.000000
   23  C  1 XY   -0.000000  -0.000000   0.000000   0.000000   0.000000
   24  C  1 XZ   -0.000000  -0.000000   0.000000   0.000000   0.000000
   25  C  1 YZ   -0.000000  -0.000000   0.000000   0.000000   0.000000
   26  C  1 XXX  -0.000000  -0.000000  -0.208364   0.000000   0.000000
   27  C  1 YYY   0.205691  -0.397666   0.000000  -0.780011   0.128777
   28  C  1 ZZZ  -0.397666  -0.205691   0.000000  -0.128777  -0.780011
   29  C  1 XXY   0.030980  -0.059894   0.000000   0.000000   0.000000
   30  C  1 XXZ  -0.059894  -0.030980   0.000000   0.000000   0.000000
   31  C  1 YYX  -0.000000  -0.000000  -0.241002   0.000000   0.000000
   32  C  1 YYZ  -0.177842  -0.091988   0.000000   0.172772   1.046494
   33  C  1 ZZX  -0.000000  -0.000000  -0.241002   0.000000   0.000000
   34  C  1 ZZY   0.091988  -0.177842   0.000000   1.046494  -0.172772
   35  C  1 XYZ  -0.000000  -0.000000   0.000000   0.000000   0.000000

                     21         22         23         24         25
                    3.1014     3.1014     3.1315     3.1315     3.1424
                     A          A          A          A          A   
    1  C  1  S    0.000000   0.000000  -0.000000   0.000000   0.000000
    2  C  1  S    0.000000   0.000000  -0.000000   0.000000   0.000000
    3  C  1  X    0.000000   0.000000  -0.000000   0.000000  -0.154624
    4  C  1  Y    0.000000   0.000000  -0.010789  -0.112141   0.000000
    5  C  1  Z    0.000000   0.000000  -0.112141   0.010789   0.000000
    6  C  1  S    0.000000   0.000000  -0.000000   0.000000   0.000000
    7  C  1  X    0.000000   0.000000  -0.000000   0.000000   0.141451
    8  C  1  Y    0.000000   0.000000   0.009259   0.096242   0.000000
    9  C  1  Z    0.000000   0.000000   0.096242  -0.009259   0.000000
   10  C  1  S    0.000000   0.000000  -0.000000   0.000000   0.000000
   11  C  1  X    0.000000   0.000000  -0.000000   0.000000  -0.072003
   12  C  1  Y    0.000000   0.000000  -0.004967  -0.051633   0.000000
   13  C  1  Z    0.000000   0.000000  -0.051633   0.004967   0.000000
   14  C  1 XX    0.000000   0.000000  -0.000000   0.000000   0.000000
   15  C  1 YY    0.000000   0.000000  -0.000000   0.000000   0.000000
   16  C  1 ZZ    0.000000   0.000000  -0.000000   0.000000   0.000000
   17  C  1 XY    0.000000   0.000000  -0.000000   0.000000   0.000000
   18  C  1 XZ    0.000000   0.000000  -0.000000   0.000000   0.000000
   19  C  1 YZ    0.000000   0.000000  -0.000000   0.000000   0.000000
   20  C  1 XX    0.000000   0.000000  -0.000000   0.000000   0.000000
   21  C  1 YY    0.000000   0.000000  -0.000000   0.000000   0.000000
   22  C  1 ZZ    0.000000   0.000000  -0.000000   0.000000   0.000000
   23  C  1 XY    0.000000   0.000000  -0.000000   0.000000   0.000000
   24  C  1 XZ    0.000000   0.000000  -0.000000   0.000000   0.000000
   25  C  1 YZ    0.000000   0.000000  -0.000000   0.000000   0.000000
   26  C  1 XXX   0.000000   0.000000  -0.000000   0.000000   1.023345
   27  C  1 YYY   0.000000   0.000000  -0.055776  -0.579760   0.000000
   28  C  1 ZZZ   0.000000   0.000000  -0.579760   0.055776   0.000000
   29  C  1 XXY   0.000000   0.000000   0.105559   1.097228   0.000000
   30  C  1 XXZ   0.000000   0.000000   1.097228  -0.105559   0.000000
   31  C  1 YYX   0.000014  -0.866025  -0.000000   0.000000  -0.650463
   32  C  1 YYZ   0.000000   0.000000  -0.259277   0.024944   0.000000
   33  C  1 ZZX  -0.000014   0.866025  -0.000000   0.000000  -0.650463
   34  C  1 ZZY   0.000000   0.000000  -0.024944  -0.259277   0.000000
   35  C  1 XYZ   1.000000   0.000016  -0.000000   0.000000   0.000000

                     26         27         28         29         30
                    3.5331     3.5331     3.5743     3.5743     3.5893
                     A          A          A          A          A   
    1  C  1  S   -0.000000  -0.000000  -0.000000   0.000000  -0.002757
    2  C  1  S   -0.000000  -0.000000  -0.000000   0.000000  -0.013071
    3  C  1  X   -0.000000  -0.000000  -0.000000   0.000000   0.000000
    4  C  1  Y   -0.000000  -0.000000  -0.000000   0.000000   0.000000
    5  C  1  Z   -0.000000  -0.000000  -0.000000   0.000000   0.000000
    6  C  1  S   -0.000000  -0.000000  -0.000000   0.000000   0.040453
    7  C  1  X   -0.000000  -0.000000  -0.000000   0.000000   0.000000
    8  C  1  Y   -0.000000  -0.000000  -0.000000   0.000000   0.000000
    9  C  1  Z   -0.000000  -0.000000  -0.000000   0.000000   0.000000
   10  C  1  S   -0.000000  -0.000000  -0.000000   0.000000   0.046095
   11  C  1  X   -0.000000  -0.000000  -0.000000   0.000000   0.000000
   12  C  1  Y   -0.000000  -0.000000  -0.000000   0.000000   0.000000
   13  C  1  Z   -0.000000  -0.000000  -0.000000   0.000000   0.000000
   14  C  1 XX   -0.000000  -0.000000  -0.000000   0.000000   1.109820
   15  C  1 YY    0.000175   0.974104  -0.000000   0.000000  -0.577276
   16  C  1 ZZ   -0.000175  -0.974104  -0.000000   0.000000  -0.577276
   17  C  1 XY   -0.000000  -0.000000   1.098923   0.240132   0.000000
   18  C  1 XZ   -0.000000  -0.000000  -0.240132   1.098923   0.000000
   19  C  1 YZ    1.124798  -0.000202  -0.000000   0.000000   0.000000
   20  C  1 XX   -0.000000  -0.000000  -0.000000   0.000000  -0.535899
   21  C  1 YY   -0.000078  -0.435302  -0.000000   0.000000   0.227389
   22  C  1 ZZ    0.000078   0.435302  -0.000000   0.000000   0.227389
   23  C  1 XY   -0.000000  -0.000000  -0.495917  -0.108366   0.000000
   24  C  1 XZ   -0.000000  -0.000000   0.108366  -0.495917   0.000000
   25  C  1 YZ   -0.502643   0.000090  -0.000000   0.000000   0.000000
   26  C  1 XXX  -0.000000  -0.000000  -0.000000   0.000000   0.000000
   27  C  1 YYY  -0.000000  -0.000000  -0.000000   0.000000   0.000000
   28  C  1 ZZZ  -0.000000  -0.000000  -0.000000   0.000000   0.000000
   29  C  1 XXY  -0.000000  -0.000000  -0.000000   0.000000   0.000000
   30  C  1 XXZ  -0.000000  -0.000000  -0.000000   0.000000   0.000000
   31  C  1 YYX  -0.000000  -0.000000  -0.000000   0.000000   0.000000
   32  C  1 YYZ  -0.000000  -0.000000  -0.000000   0.000000   0.000000
   33  C  1 ZZX  -0.000000  -0.000000  -0.000000   0.000000   0.000000
   34  C  1 ZZY  -0.000000  -0.000000  -0.000000   0.000000   0.000000
   35  C  1 XYZ  -0.000000  -0.000000  -0.000000   0.000000   0.000000

                     31         32         33         34         35
                    8.0219     8.0219     8.0894     8.7949    32.9265
                     A          A          A          A          A   
    1  C  1  S   -0.000000   0.000000  -0.000000  -0.082592   2.446252
    2  C  1  S   -0.000000   0.000000  -0.000000  -1.849514  -4.052974
    3  C  1  X    0.000000   0.000000  -3.321474  -0.000000  -0.000000
    4  C  1  Y   -2.375408   2.331950  -0.000000  -0.000000  -0.000000
    5  C  1  Z   -2.331950  -2.375408  -0.000000  -0.000000  -0.000000
    6  C  1  S   -0.000000   0.000000  -0.000000   7.639495   5.665385
    7  C  1  X   -0.000000   0.000000  14.044445  -0.000000  -0.000000
    8  C  1  Y   10.024993  -9.841587   0.000000  -0.000000  -0.000000
    9  C  1  Z    9.841587  10.024993   0.000000  -0.000000  -0.000000
   10  C  1  S   -0.000000   0.000000  -0.000000   2.706157   2.814788
   11  C  1  X   -0.000000   0.000000  -1.162612  -0.000000  -0.000000
   12  C  1  Y   -0.831862   0.816644  -0.000000  -0.000000  -0.000000
   13  C  1  Z   -0.816644  -0.831862  -0.000000  -0.000000  -0.000000
   14  C  1 XX   -0.000000   0.000000  -0.000000  -3.162146  -2.286567
   15  C  1 YY   -0.000000   0.000000  -0.000000  -3.154468  -2.286739
   16  C  1 ZZ   -0.000000   0.000000  -0.000000  -3.154468  -2.286739
   17  C  1 XY   -0.000000   0.000000  -0.000000  -0.000000  -0.000000
   18  C  1 XZ   -0.000000   0.000000  -0.000000  -0.000000  -0.000000
   19  C  1 YZ   -0.000000   0.000000  -0.000000  -0.000000  -0.000000
   20  C  1 XX   -0.000000   0.000000  -0.000000  -1.682283  -1.621048
   21  C  1 YY   -0.000000   0.000000  -0.000000  -1.686244  -1.621077
   22  C  1 ZZ   -0.000000   0.000000  -0.000000  -1.686244  -1.621077
   23  C  1 XY   -0.000000   0.000000  -0.000000  -0.000000  -0.000000
   24  C  1 XZ   -0.000000   0.000000  -0.000000  -0.000000  -0.000000
   25  C  1 YZ   -0.000000   0.000000  -0.000000  -0.000000  -0.000000
   26  C  1 XXX   0.000000   0.000000  -7.519894  -0.000000  -0.000000
   27  C  1 YYY  -5.362851   5.264738  -0.000000  -0.000000  -0.000000
   28  C  1 ZZZ  -5.264738  -5.362851  -0.000000  -0.000000  -0.000000
   29  C  1 XXY  -2.399674   2.355772  -0.000000  -0.000000  -0.000000
   30  C  1 XXZ  -2.355772  -2.399674  -0.000000  -0.000000  -0.000000
   31  C  1 YYX   0.000000   0.000000  -3.361149  -0.000000  -0.000000
   32  C  1 YYZ  -2.354462  -2.398340  -0.000000  -0.000000  -0.000000
   33  C  1 ZZX   0.000000   0.000000  -3.361149  -0.000000  -0.000000
   34  C  1 ZZY  -2.398340   2.354462  -0.000000  -0.000000  -0.000000
   35  C  1 XYZ  -0.000000   0.000000  -0.000000  -0.000000  -0.000000
 ...... END OF RHF CALCULATION ......
 STEP CPU TIME =     0.00 TOTAL CPU TIME =          0.0 (      0.0 MIN)
 TOTAL WALL CLOCK TIME=          0.0 SECONDS, CPU UTILIZATION IS    50.00%

     ----------------------------------------------------------------
     PROPERTY VALUES FOR THE RHF   SELF-CONSISTENT FIELD WAVEFUNCTION
     ----------------------------------------------------------------

          -----------------
          ENERGY COMPONENTS
          -----------------

         WAVEFUNCTION NORMALIZATION =       1.0000000000

                ONE ELECTRON ENERGY =     -50.3484267725
                TWO ELECTRON ENERGY =      12.7484916823
           NUCLEAR REPULSION ENERGY =       0.0000000000
                                      ------------------
                       TOTAL ENERGY =     -37.5999350902

 ELECTRON-ELECTRON POTENTIAL ENERGY =      12.7484916823
  NUCLEUS-ELECTRON POTENTIAL ENERGY =     -87.9618278352
   NUCLEUS-NUCLEUS POTENTIAL ENERGY =       0.0000000000
                                      ------------------
             TOTAL POTENTIAL ENERGY =     -75.2133361529
               TOTAL KINETIC ENERGY =      37.6134010627
                 VIRIAL RATIO (V/T) =       1.9996419900

          ---------------------------------------
          MULLIKEN AND LOWDIN POPULATION ANALYSES
          ---------------------------------------

     ATOMIC MULLIKEN POPULATION IN EACH MOLECULAR ORBITAL

                      1          2          3

                  2.000000   2.000000   2.000000

    1             2.000000   2.000000   2.000000

               ----- POPULATIONS IN EACH AO -----
                             MULLIKEN      LOWDIN
              1  C  1  S      1.10640     1.05471
              2  C  1  S      0.88633     0.90835
              3  C  1  X      0.38325     0.35854
              4  C  1  Y      0.00000     0.00000
              5  C  1  Z      0.00000     0.00000
              6  C  1  S      1.06514     0.47671
              7  C  1  X      0.79045     0.46698
              8  C  1  Y      0.00000     0.00000
              9  C  1  Z      0.00000     0.00000
             10  C  1  S      0.83911     0.44968
             11  C  1  X      0.80389     0.64826
             12  C  1  Y      0.00000     0.00000
             13  C  1  Z      0.00000     0.00000
             14  C  1 XX      0.00770     0.19690
             15  C  1 YY      0.00524     0.19221
             16  C  1 ZZ      0.00524     0.19221
             17  C  1 XY      0.00000     0.00000
             18  C  1 XZ      0.00000     0.00000
             19  C  1 YZ      0.00000     0.00000
             20  C  1 XX      0.03861     0.18427
             21  C  1 YY      0.02311     0.17248
             22  C  1 ZZ      0.02311     0.17248
             23  C  1 XY      0.00000     0.00000
             24  C  1 XZ      0.00000     0.00000
             25  C  1 YZ      0.00000     0.00000
             26  C  1 XXX    -0.00513     0.26412
             27  C  1 YYY     0.00000     0.00000
             28  C  1 ZZZ     0.00000     0.00000
             29  C  1 XXY     0.00000     0.00000
             30  C  1 XXZ     0.00000     0.00000
             31  C  1 YYX     0.01377     0.13105
             32  C  1 YYZ     0.00000     0.00000
             33  C  1 ZZX     0.01377     0.13105
             34  C  1 ZZY     0.00000     0.00000
             35  C  1 XYZ     0.00000     0.00000

          ----- MULLIKEN ATOMIC OVERLAP POPULATIONS -----
          (OFF-DIAGONAL ELEMENTS NEED TO BE MULTIPLIED BY 2)

             1

    1    6.0000000

          TOTAL MULLIKEN AND LOWDIN ATOMIC POPULATIONS
       ATOM         MULL.POP.    CHARGE          LOW.POP.     CHARGE
    1 C             6.000000    0.000000         6.000000   -0.000000

          -------------------------------
          BOND ORDER AND VALENCE ANALYSIS     BOND ORDER THRESHOLD=0.050
          -------------------------------

                   BOND                       BOND                       BOND
  ATOM PAIR DIST  ORDER      ATOM PAIR DIST  ORDER      ATOM PAIR DIST  ORDER

                       TOTAL       BONDED        FREE
      ATOM            VALENCE     VALENCE     VALENCE
    1 C                 0.000       0.000       0.000

          ---------------------
          ELECTROSTATIC MOMENTS
          ---------------------

 POINT   1           X           Y           Z (BOHR)    CHARGE
                 0.000000    0.000000    0.000000        0.00 (A.U.)
         DX          DY          DZ         /D/  (DEBYE)
     0.000000    0.000000    0.000000    0.000000
 ...... END OF PROPERTY EVALUATION ......
 STEP CPU TIME =     0.00 TOTAL CPU TIME =          0.0 (      0.0 MIN)
 TOTAL WALL CLOCK TIME=          0.0 SECONDS, CPU UTILIZATION IS    50.00%
               580000  WORDS OF DYNAMIC MEMORY USED
 EXECUTION OF GAMESS TERMINATED NORMALLY Fri Jun 14 00:13:44 2019
 DDI: 263640 bytes (0.3 MB / 0 MWords) used by master data server.

 ----------------------------------------
 CPU timing information for all processes
 ========================================
 0: 0.28 + 0.08 = 0.36
 ----------------------------------------
 ddikick.x: exited gracefully.
----- accounting info -----
Files used on the master node amlan-PT-3420 were:
-rw-rw-r-- 1 akroy akroy   21225 Jun 14 00:13 /tmp/c_atom_6_311g2df2pd_all.dat
-rw-rw-r-- 1 akroy akroy     242 Jun 14 00:13 /tmp/c_atom_6_311g2df2pd_all.F05
-rw-rw-r-- 1 akroy akroy  360032 Jun 14 00:13 /tmp/c_atom_6_311g2df2pd_all.F08
-rw-rw-r-- 1 akroy akroy 1537840 Jun 14 00:13 /tmp/c_atom_6_311g2df2pd_all.F10
Fri Jun 14 00:13:47 IST 2019
0.0u 0.0s 0:03.15 1.2% 0+0k 0+16io 0pf+0w
