----- GAMESS execution script 'rungms' -----
This job is running on host amlan-PT-3420
under operating system Linux at Fri Jun 14 16:22:20 IST 2019
Available scratch disk space (Kbyte units) at beginning of the job is
Filesystem      1K-blocks     Used  Available Use% Mounted on
/dev/sda3      1916812448 57025544 1762395392   4% /
GAMESS temporary binary files will be written to /tmp
GAMESS supplementary output files will be written to /tmp
Copying input file o_atom_6_311g2df2pd_all.inp to your run's scratch directory...

 Distributed Data Interface kickoff program.
 Initiating 1 compute processes on 1 nodes to run the following command:
 /home/akroy/gamess/gamess.01.x o_atom_6_311g2df2pd_all 

          ******************************************************
          *         GAMESS VERSION = 30 SEP 2018 (R3)         *
          *             FROM IOWA STATE UNIVERSITY             *
          * M.W.SCHMIDT, K.K.BALDRIDGE, J.A.BOATZ, S.T.ELBERT, *
          *   M.S.GORDON, J.H.JENSEN, S.KOSEKI, N.MATSUNAGA,   *
          *          K.A.NGUYEN, S.J.SU, T.L.WINDUS,           *
          *       TOGETHER WITH M.DUPUIS, J.A.MONTGOMERY       *
          *         J.COMPUT.CHEM.  14, 1347-1363(1993)        *
          **************** 64 BIT LINUX VERSION ****************

  SINCE 1993, STUDENTS AND POSTDOCS WORKING AT IOWA STATE UNIVERSITY
  AND ALSO IN THEIR VARIOUS JOBS AFTER LEAVING ISU HAVE MADE IMPORTANT
  CONTRIBUTIONS TO THE CODE:
     IVANA ADAMOVIC, CHRISTINE AIKENS, YURI ALEXEEV, POOJA ARORA,
     ANDREY ASADCHEV, ROB BELL, PRADIPTA BANDYOPADHYAY, JONATHAN BENTZ,
     BRETT BODE, KURT BRORSEN, CALEB CARLIN, GALINA CHABAN, WEI CHEN,
     CHEOL HO CHOI, PAUL DAY, ALBERT DEFUSCO, NUWAN DESILVA, TIM DUDLEY,
     DMITRI FEDOROV, ALEX FINDLATER, GRAHAM FLETCHER, MARK FREITAG,
     KURT GLAESEMANN, ANASTASIA GUNINA,
     DAN KEMP, GRANT MERRILL, NORIYUKI MINEZAWA, JONATHAN MULLIN,
     TAKESHI NAGATA, SEAN NEDD, HEATHER NETZLOFF, BOSILJKA NJEGIC, RYAN OLSON,
     MIKE PAK, BUU PHAM,
     SPENCER PRUITT, LUKE ROSKOP, JIM SHOEMAKER, LYUDMILA SLIPCHENKO,
     TONY SMITH, SAROM SOK LEANG, JIE SONG, TETSUYA TAKETSUGU, SIMON WEBB,
     PENG XU, SOOHAENG YOO, FEDERICO ZAHARIEV

  ADDITIONAL CODE HAS BEEN PROVIDED BY COLLABORATORS IN OTHER GROUPS:
     IOWA STATE UNIVERSITY:
          JOE IVANIC, AARON WEST, LAIMUTIS BYTAUTAS, KLAUS RUEDENBERG
     UNIVERSITY OF TOKYO: KIMIHIKO HIRAO, TAKAHITO NAKAJIMA,
          TAKAO TSUNEDA, MUNEAKI KAMIYA, SUSUMU YANAGISAWA,
          KIYOSHI YAGI, MAHITO CHIBA, SEIKEN TOKURA, NAOAKI KAWAKAMI
     UNIVERSITY OF AARHUS: FRANK JENSEN
     UNIVERSITY OF IOWA: VISVALDAS KAIRYS, HUI LI
     NATIONAL INST. OF STANDARDS AND TECHNOLOGY: WALT STEVENS, DAVID GARMER
     UNIVERSITY OF PISA: BENEDETTA MENNUCCI, JACOPO TOMASI
     UNIVERSITY OF MEMPHIS: HENRY KURTZ, PRAKASHAN KORAMBATH
     UNIVERSITY OF ALBERTA: TOBY ZENG, MARIUSZ KLOBUKOWSKI
     UNIVERSITY OF NEW ENGLAND: MARK SPACKMAN
     MIE UNIVERSITY: HIROAKI UMEDA
     NAT. INST. OF ADVANCED INDUSTRIAL SCIENCE AND TECHNOLOGY: KAZUO KITAURA
     MICHIGAN STATE UNIVERSITY:
          KAROL KOWALSKI, MARTA WLOCH, JEFFREY GOUR, JESSE LUTZ,
          WEI LI, JUN SHEN, J. EMILIANO DEUSTUA, PIOTR PIECUCH
     UNIVERSITY OF MINNESOTA:
          YINAN SHU
     UNIVERSITY OF SILESIA: MONIKA MUSIAL, STANISLAW KUCHARSKI
     FACULTES UNIVERSITAIRES NOTRE-DAME DE LA PAIX:
          OLIVIER QUINET, BENOIT CHAMPAGNE
     UNIVERSITY OF CALIFORNIA - SANTA BARBARA: BERNARD KIRTMAN
     INSTITUTE FOR MOLECULAR SCIENCE:
          KAZUYA ISHIMURA, MICHIO KATOUDA, AND SHIGERU NAGASE
     UNIVERSITY OF NOTRE DAME: ANNA POMOGAEVA, DAN CHIPMAN
     KYUSHU UNIVERSITY:
          HARUYUKI NAKANO,
          FENG LONG GU, JACEK KORCHOWIEC, MARCIN MAKOWSKI, AND YURIKO AOKI,
          HIROTOSHI MORI AND EISAKU MIYOSHI
     PENNSYLVANIA STATE UNIVERSITY:
          TZVETELIN IORDANOV, CHET SWALINA, JONATHAN SKONE,
          SHARON HAMMES-SCHIFFER
     WASEDA UNIVERSITY:
          MASATO KOBAYASHI, TOMOKO AKAMA, TSUGUKI TOUMA,
          TAKESHI YOSHIKAWA, YASUHIRO IKABATA, JUNJI SEINO,
          YUYA NAKAJIMA, HIROMI NAKAI
     NANJING UNIVERSITY: SHUHUA LI
     UNIVERSITY OF NEBRASKA:
          PEIFENG SU, DEJUN SI, NANDUN THELLAMUREGE, YALI WANG, HUI LI
     UNIVERSITY OF ZURICH: ROBERTO PEVERATI, KIM BALDRIDGE
     N. COPERNICUS UNIVERSITY AND JACKSON STATE UNIVERSITY:
          MARIA BARYSZ
     UNIVERSITY OF COPENHAGEN: Jimmy Kromann, CASPER STEINMANN
     TOKYO INSTITUTE OF TECHNOLOGY: HIROYA NAKATA
     NAGOYA UNIVERSITY: YOSHIO NISHIMOTO, STEPHAN IRLE
     MOSCOW STATE UNIVERSITY: VLADIMIR MIRONOV

 EXECUTION OF GAMESS BEGUN Fri Jun 14 16:22:20 2019

            ECHO OF THE FIRST FEW INPUT CARDS -
 INPUT CARD> $CONTRL SCFTYP=RHF COORD=CART MULT=1 RUNTYP=ENERGY  $END                       
 INPUT CARD> $SYSTEM TIMLIM=2000 $END                                                       
 INPUT CARD> $DFT METHOD=GRID DFTTYP=NONE $END                                              
 INPUT CARD> $BASIS EXTFIL=.TRUE. GBASIS=6311G2DF $END                                      
 INPUT CARD> $GUESS GUESS=HUCKEL $END                                                       
 INPUT CARD> $DATA                                                                          
 INPUT CARD>O                                                                               
 INPUT CARD>C1                                                                              
 INPUT CARD>O   8.0   0.0000   0.0000   0.0000                                              
 INPUT CARD> $END                                                                           
 INPUT CARD>                                                                                
    1000000 WORDS OF MEMORY AVAILABLE


                    * * * WARNING * * *
 OLD KEYWORD COORD=CART SELECTED, AUTOMATICALLY CHANGED TO COORD=PRINAXIS.
 YOUR MOLECULE'S COORDINATES WILL BE CHANGED TO PRINCIPAL AXES BY
   A) TRANSLATION TO THE CENTER OF MASS, THEN
   B) ROTATION TO HAVE A DIAGONAL MOMENT OF INERTIA TENSOR.

 HOWEVER, NOTHING ELSE IN YOUR INPUT WILL BE ROTATED IN THE SAME WAY,
 SO IF YOU HAVE A $VEC, $VIB, $GRAD, $HESS, EFP PARTICLE COORDINATES,
 OR ANYTHING ELSE THAT DEPENDS ON THE INITIAL ORIENTATION, THAT DATA
 WILL NOT BE USED CORRECTLY IN THIS RUN.

 THE PURPOSE OF COORD=PRINAXIS IS TO BE USED ONCE, ONLY AT THE VERY
 BEGINNING OF A SERIES OF COMPUTATIONS, PERHAPS TO FIND THE SYMMETRY
 UNIQUE ATOMS FROM AN ARBITRARY INITIAL ORIENTATION.

 AFTER THE FIRST RUN, YOU SHOULD USE ONLY COORD=UNIQUE, TO ENSURE THAT
 THE COORDINATES WHICH YOU READ IN ARE THE COORDINATES THAT ARE USED.


     $BASIS REQUESTS READING THE "6311G2DF" BASIS SET FROM AN EXTERNAL FILE


     RUN TITLE
     ---------
 O                                                                               

 THE POINT GROUP OF THE MOLECULE IS C1      
 THE ORDER OF THE PRINCIPAL AXIS IS     0

 THE MOMENTS OF INERTIA ARE (AMU-ANGSTROM**2)
 IXX=     0.000   IYY=     0.000   IZZ=     0.000

 THE EXTERNAL BASIS SET FILE BEING READ IS
     "/home/akroy/gamess/EXTFILE.txt"

 ATOM      ATOMIC                      COORDINATES (BOHR)
           CHARGE         X                   Y                   Z
 O           8.0     0.0000000000        0.0000000000        0.0000000000

          INTERNUCLEAR DISTANCES (ANGS.)
          ------------------------------

                1 O     

   1 O       0.0000000  

  * ... LESS THAN  3.000


     ATOMIC BASIS SET
     ----------------
 THE CONTRACTED PRIMITIVE FUNCTIONS HAVE BEEN UNNORMALIZED
 THE CONTRACTED BASIS FUNCTIONS ARE NOW NORMALIZED TO UNITY

  SHELL TYPE  PRIMITIVE        EXPONENT          CONTRACTION COEFFICIENT(S)

 O         

      1   S       1          8588.5000000    0.001895150083
      1   S       2          1297.2300000    0.014385900631
      1   S       3           299.2960000    0.070732003103
      1   S       4            87.3771000    0.240001010530
      1   S       5            25.6789000    0.594797026097
      1   S       6             3.7400400    0.280802012320

      2   L       7            42.1175000    0.113889012440    0.036511397380
      2   L       8             9.6283700    0.920811100576    0.237152982984
      2   L       9             2.8533200   -0.003274470358    0.819701941186

      3   L      10             0.9056610    1.000000000000    1.000000000000

      4   L      11             0.2556110    1.000000000000    1.000000000000

      5   D      12             2.5840000    1.000000000000

      6   D      13             0.6460000    1.000000000000

      7   F      14             1.4000000    1.000000000000

 TOTAL NUMBER OF BASIS SET SHELLS             =    7
 NUMBER OF CARTESIAN GAUSSIAN BASIS FUNCTIONS =   35
 NUMBER OF ELECTRONS                          =    8
 CHARGE OF MOLECULE                           =    0
 SPIN MULTIPLICITY                            =    1
 NUMBER OF OCCUPIED ORBITALS (ALPHA)          =    4
 NUMBER OF OCCUPIED ORBITALS (BETA )          =    4
 TOTAL NUMBER OF ATOMS                        =    1
 THE NUCLEAR REPULSION ENERGY IS        0.0000000000

 THIS MOLECULE IS RECOGNIZED AS BEING LINEAR,
 ORBITAL LZ DEGENERACY TOLERANCE ETOLLZ= 1.00E-06

     $CONTRL OPTIONS
     ---------------
 SCFTYP=RHF          RUNTYP=ENERGY       EXETYP=RUN     
 MPLEVL=       0     CITYP =NONE         CCTYP =NONE         VBTYP =NONE    
 DFTTYP=NONE         TDDFT =NONE    
 MULT  =       1     ICHARG=       0     NZVAR =       0     COORD =PRINAXIS
 PP    =NONE         RELWFN=NONE         LOCAL =NONE         NUMGRD=       F
 ISPHER=      -1     NOSYM =       0     MAXIT =      30     UNITS =ANGS    
 PLTORB=       F     MOLPLT=       F     AIMPAC=       F     FRIEND=        
 NPRINT=       7     IREST =       0     GEOM  =INPUT   
 NORMF =       0     NORMP =       0     ITOL  =      20     ICUT  =       9
 INTTYP=BEST         GRDTYP=BEST         QMTTOL= 1.0E-06

     $SYSTEM OPTIONS
     ---------------
  REPLICATED MEMORY=     1000000 WORDS (ON EVERY NODE).
 DISTRIBUTED MEMDDI=           0 MILLION WORDS IN AGGREGATE,
 MEMDDI DISTRIBUTED OVER   1 PROCESSORS IS           0 WORDS/PROCESSOR.
 TOTAL MEMORY REQUESTED ON EACH PROCESSOR=     1000000 WORDS.
 TIMLIM=        2000.00 MINUTES, OR       1.4 DAYS.
 PARALL= F  BALTYP=  DLB     KDIAG=    0  COREFL= F
 MXSEQ2=     300 MXSEQ3=     150  mem10=         0

          ----------------
          PROPERTIES INPUT
          ----------------

     MOMENTS            FIELD           POTENTIAL          DENSITY
 IEMOM =       1   IEFLD =       0   IEPOT =       0   IEDEN =       0
 WHERE =COMASS     WHERE =NUCLEI     WHERE =NUCLEI     WHERE =NUCLEI  
 OUTPUT=BOTH       OUTPUT=BOTH       OUTPUT=BOTH       OUTPUT=BOTH    
 IEMINT=       0   IEFINT=       0                     IEDINT=       0
                                                       MORB  =       0
          EXTRAPOLATION IN EFFECT
          SOSCF IN EFFECT
 ORBITAL PRINTING OPTION: NPREO=     1    35     2     1

     -------------------------------
     INTEGRAL TRANSFORMATION OPTIONS
     -------------------------------
     NWORD  =            0
     CUTOFF = 1.0E-09     MPTRAN =       0
     DIRTRF =       F     AOINTS =DUP     

          ----------------------
          INTEGRAL INPUT OPTIONS
          ----------------------
 NOPK  =       1 NORDER=       0 SCHWRZ=       F

     ------------------------------------------
     THE POINT GROUP IS C1 , NAXIS= 0, ORDER= 1
     ------------------------------------------

     DIMENSIONS OF THE SYMMETRY SUBSPACES ARE
 A   =   35

 ..... DONE SETTING UP THE RUN .....
 STEP CPU TIME =     0.00 TOTAL CPU TIME =          0.0 (      0.0 MIN)
 TOTAL WALL CLOCK TIME=          0.0 SECONDS, CPU UTILIZATION IS     0.00%

          ********************
          1 ELECTRON INTEGRALS
          ********************
 ...... END OF ONE-ELECTRON INTEGRALS ......
 STEP CPU TIME =     0.00 TOTAL CPU TIME =          0.0 (      0.0 MIN)
 TOTAL WALL CLOCK TIME=          0.0 SECONDS, CPU UTILIZATION IS     0.00%

          -------------
          GUESS OPTIONS
          -------------
          GUESS =HUCKEL            NORB  =       0          NORDER=       0
          MIX   =       F          PRTMO =       F          PUNMO =       F
          TOLZ  = 1.0E-08          TOLE  = 1.0E-05
          SYMDEN=       F          PURIFY=       F

 INITIAL GUESS ORBITALS GENERATED BY HUCKEL   ROUTINE.
 HUCKEL GUESS REQUIRES     10008 WORDS.

 SYMMETRIES FOR INITIAL GUESS ORBITALS FOLLOW.   BOTH SET(S).
     4 ORBITALS ARE OCCUPIED (    1 CORE ORBITALS).
     2=A        3=A        4=A        5=A        6=A        7=A        8=A   
     9=A       10=A       11=A       12=A       13=A       14=A   
 ...... END OF INITIAL ORBITAL SELECTION ......
 STEP CPU TIME =     0.00 TOTAL CPU TIME =          0.0 (      0.0 MIN)
 TOTAL WALL CLOCK TIME=          0.0 SECONDS, CPU UTILIZATION IS     0.00%

                    ----------------------
                    AO INTEGRAL TECHNOLOGY
                    ----------------------
     S,P,L SHELL ROTATED AXIS INTEGRALS, REPROGRAMMED BY
        KAZUYA ISHIMURA (IMS) AND JOSE SIERRA (SYNSTAR).
     S,P,D,L SHELL ROTATED AXIS INTEGRALS PROGRAMMED BY
        KAZUYA ISHIMURA (INSTITUTE FOR MOLECULAR SCIENCE).
     S,P,D,F,G SHELL TO TOTAL QUARTET ANGULAR MOMENTUM SUM 5,
        ERIC PROGRAM BY GRAHAM FLETCHER (ELORET AND NASA ADVANCED
        SUPERCOMPUTING DIVISION, AMES RESEARCH CENTER).
     S,P,D,F,G,L SHELL GENERAL RYS QUADRATURE PROGRAMMED BY
        MICHEL DUPUIS (PACIFIC NORTHWEST NATIONAL LABORATORY).

          --------------------
          2 ELECTRON INTEGRALS
          --------------------

 THE -PK- OPTION IS OFF, THE INTEGRALS ARE NOT IN SUPERMATRIX FORM.
 STORING   15000 INTEGRALS/RECORD ON DISK, USING 12 BYTES/INTEGRAL.
 TWO ELECTRON INTEGRAL EVALUATION REQUIRES   99128 WORDS OF MEMORY.
 II,JST,KST,LST =  1  1  1  1 NREC =         1 INTLOC =    1
 II,JST,KST,LST =  2  1  1  1 NREC =         1 INTLOC =    2
 II,JST,KST,LST =  3  1  1  1 NREC =         1 INTLOC =   34
 II,JST,KST,LST =  4  1  1  1 NREC =         1 INTLOC =  214
 II,JST,KST,LST =  5  1  1  1 NREC =         1 INTLOC =  776
 II,JST,KST,LST =  6  1  1  1 NREC =         1 INTLOC = 2864
 II,JST,KST,LST =  7  1  1  1 NREC =         1 INTLOC = 7967
 TOTAL NUMBER OF NONZERO TWO-ELECTRON INTEGRALS =               27193
          2 INTEGRAL RECORDS WERE STORED ON DISK FILE  8.
  ...... END OF TWO-ELECTRON INTEGRALS .....
 STEP CPU TIME =     0.01 TOTAL CPU TIME =          0.0 (      0.0 MIN)
 TOTAL WALL CLOCK TIME=          0.0 SECONDS, CPU UTILIZATION IS    50.00%

          --------------------------
                 RHF SCF CALCULATION
          --------------------------

     NUCLEAR ENERGY =         0.0000000000
     MAXIT =   30     NPUNCH=    2
     EXTRAP=T  DAMP=F  SHIFT=F  RSTRCT=F  DIIS=F  DEM=F  SOSCF=T
     DENSITY MATRIX CONV=  1.00E-05
     SOSCF WILL OPTIMIZE     124 ORBITAL ROTATIONS, SOGTOL=   0.250
     MEMORY REQUIRED FOR RHF ITERS=     39561 WORDS.

 ITER EX DEM     TOTAL ENERGY        E CHANGE  DENSITY CHANGE     ORB. GRAD
   1  0  0      -74.5847287810   -74.5847287810   0.703218272   0.000000000
          ---------------START SECOND ORDER SCF---------------
   2  1  0      -74.6796356258    -0.0949068448   0.020884488   0.020480042
   3  2  0      -74.6801775156    -0.0005418898   0.003728918   0.002974534
   4  3  0      -74.6802121079    -0.0000345922   0.000169208   0.000228061
   5  4  0      -74.6802121417    -0.0000000339   0.000048763   0.000019030
   6  5  0      -74.6802121428    -0.0000000011   0.000005388   0.000003238
   7  6  0      -74.6802121428    -0.0000000000   0.000000553   0.000000402

          -----------------
          DENSITY CONVERGED
          -----------------
     TIME TO FORM FOCK OPERATORS=       0.0 SECONDS (       0.0 SEC/ITER)
     TIME TO SOLVE SCF EQUATIONS=       0.0 SECONDS (       0.0 SEC/ITER)

 FINAL RHF ENERGY IS      -74.6802121428 AFTER   7 ITERATIONS

 LZ VALUE ANALYSIS FOR THE MOS
 ----------------------------------------
 MO     1 (    1) HAS LZ(WEIGHT)= 0.00(100.0%) 
 MO     2 (    2) HAS LZ(WEIGHT)= 0.00(100.0%) 
 MO     3 (    3) HAS LZ(WEIGHT)=-1.00( 50.0%)  1.00( 50.0%) 
 MO     4 (    3) HAS LZ(WEIGHT)=-1.00( 50.0%)  1.00( 50.0%) 
 MO     5 (    4) HAS LZ(WEIGHT)= 0.00(100.0%) 
 MO     6 (    5) HAS LZ(WEIGHT)= 0.00(100.0%) 
 MO     7 (    6) HAS LZ(WEIGHT)=-1.00( 50.0%)  1.00( 50.0%) 
 MO     8 (    6) HAS LZ(WEIGHT)=-1.00( 50.0%)  1.00( 50.0%) 
 MO     9 (    7) HAS LZ(WEIGHT)= 0.00(100.0%) 
 MO    10 (    8) HAS LZ(WEIGHT)= 0.00(100.0%) 
 MO    11 (    9) HAS LZ(WEIGHT)=-1.00( 50.0%)  1.00( 50.0%) 
 MO    12 (    9) HAS LZ(WEIGHT)=-1.00( 50.0%)  1.00( 50.0%) 
 MO    13 (   10) HAS LZ(WEIGHT)=-2.00( 50.0%)  2.00( 50.0%) 
 MO    14 (   10) HAS LZ(WEIGHT)=-2.00( 50.0%)  2.00( 50.0%) 
 MO    15 (   11) HAS LZ(WEIGHT)= 0.00(100.0%) 
 MO    16 (   12) HAS LZ(WEIGHT)= 0.00(100.0%) 
 MO    17 (   13) HAS LZ(WEIGHT)=-1.00( 50.0%)  1.00( 50.0%) 
 MO    18 (   13) HAS LZ(WEIGHT)=-1.00( 50.0%)  1.00( 50.0%) 
 MO    19 (   14) HAS LZ(WEIGHT)= 0.00(100.0%) 
 MO    20 (   15) HAS LZ(WEIGHT)=-1.00( 50.0%)  1.00( 50.0%) 
 MO    21 (   15) HAS LZ(WEIGHT)=-1.00( 50.0%)  1.00( 50.0%) 
 MO    22 (   16) HAS LZ(WEIGHT)=-2.00( 50.0%)  2.00( 50.0%) 
 MO    23 (   16) HAS LZ(WEIGHT)=-2.00( 50.0%)  2.00( 50.0%) 
 MO    24 (   17) HAS LZ(WEIGHT)=-3.00( 50.0%)  3.00( 50.0%) 
 MO    25 (   17) HAS LZ(WEIGHT)=-3.00( 50.0%)  3.00( 50.0%) 
 MO    26 (   18) HAS LZ(WEIGHT)= 0.00(100.0%) 
 MO    27 (   19) HAS LZ(WEIGHT)=-1.00( 50.0%)  1.00( 50.0%) 
 MO    28 (   19) HAS LZ(WEIGHT)=-1.00( 50.0%)  1.00( 50.0%) 
 MO    29 (   20) HAS LZ(WEIGHT)=-2.00( 50.0%)  2.00( 50.0%) 
 MO    30 (   20) HAS LZ(WEIGHT)=-2.00( 50.0%)  2.00( 50.0%) 
 MO    31 (   21) HAS LZ(WEIGHT)= 0.00(100.0%) 
 MO    32 (   22) HAS LZ(WEIGHT)= 0.00(100.0%) 
 MO    33 (   23) HAS LZ(WEIGHT)=-1.00( 50.0%)  1.00( 50.0%) 
 MO    34 (   23) HAS LZ(WEIGHT)=-1.00( 50.0%)  1.00( 50.0%) 
 MO    35 (   24) HAS LZ(WEIGHT)= 0.00(100.0%) 

          ------------
          EIGENVECTORS
          ------------

                      1          2          3          4          5
                  -20.6955    -1.2536    -0.5783    -0.5783     0.0034
                     A          A          A          A          A   
    1  O  1  S    0.551610  -0.127702  -0.000000   0.000000  -0.000000
    2  O  1  S    0.471680  -0.205406  -0.000000   0.000000  -0.000000
    3  O  1  X   -0.000000  -0.000000   0.293822  -0.110794  -0.000000
    4  O  1  Y   -0.000000  -0.000000   0.110794   0.293822  -0.000000
    5  O  1  Z   -0.000000  -0.000000  -0.000000   0.000000   0.256524
    6  O  1  S    0.005056   0.632587  -0.000000   0.000000  -0.000000
    7  O  1  X   -0.000000  -0.000000   0.436756  -0.164691  -0.000000
    8  O  1  Y   -0.000000  -0.000000   0.164691   0.436756  -0.000000
    9  O  1  Z   -0.000000  -0.000000  -0.000000   0.000000   0.366796
   10  O  1  S    0.000669   0.421322  -0.000000   0.000000  -0.000000
   11  O  1  X   -0.000000  -0.000000   0.407451  -0.153640  -0.000000
   12  O  1  Y   -0.000000  -0.000000   0.153640   0.407451  -0.000000
   13  O  1  Z   -0.000000  -0.000000  -0.000000   0.000000   0.591999
   14  O  1 XX   -0.000010   0.009428  -0.000000   0.000000  -0.000000
   15  O  1 YY   -0.000010   0.009428  -0.000000   0.000000  -0.000000
   16  O  1 ZZ   -0.000531   0.007814  -0.000000   0.000000  -0.000000
   17  O  1 XY   -0.000000  -0.000000  -0.000000   0.000000  -0.000000
   18  O  1 XZ   -0.000000  -0.000000  -0.000000   0.000000  -0.000000
   19  O  1 YZ   -0.000000  -0.000000  -0.000000   0.000000  -0.000000
   20  O  1 XX   -0.000137   0.027143  -0.000000   0.000000  -0.000000
   21  O  1 YY   -0.000137   0.027143  -0.000000   0.000000  -0.000000
   22  O  1 ZZ   -0.000792   0.019525  -0.000000   0.000000  -0.000000
   23  O  1 XY   -0.000000  -0.000000  -0.000000   0.000000  -0.000000
   24  O  1 XZ   -0.000000  -0.000000  -0.000000   0.000000  -0.000000
   25  O  1 YZ   -0.000000  -0.000000  -0.000000   0.000000  -0.000000
   26  O  1 XXX  -0.000000  -0.000000  -0.001901   0.000717  -0.000000
   27  O  1 YYY  -0.000000  -0.000000  -0.000717  -0.001901  -0.000000
   28  O  1 ZZZ  -0.000000  -0.000000  -0.000000   0.000000   0.009356
   29  O  1 XXY  -0.000000  -0.000000  -0.000321  -0.000850  -0.000000
   30  O  1 XXZ  -0.000000  -0.000000  -0.000000   0.000000  -0.005135
   31  O  1 YYX  -0.000000  -0.000000  -0.000850   0.000321  -0.000000
   32  O  1 YYZ  -0.000000  -0.000000  -0.000000   0.000000  -0.005135
   33  O  1 ZZX  -0.000000  -0.000000   0.008511  -0.003209  -0.000000
   34  O  1 ZZY  -0.000000  -0.000000   0.003209   0.008511  -0.000000
   35  O  1 XYZ  -0.000000  -0.000000  -0.000000   0.000000  -0.000000

                      6          7          8          9         10
                    0.6097     0.9517     0.9517     0.9917     1.6831
                     A          A          A          A          A   
    1  O  1  S    0.071774  -0.000000  -0.000000   0.000000   0.002743
    2  O  1  S    0.055039  -0.000000  -0.000000   0.000000   0.008757
    3  O  1  X   -0.000000  -0.129140  -0.229491   0.000000  -0.000000
    4  O  1  Y   -0.000000  -0.229491   0.129140   0.000000  -0.000000
    5  O  1  Z   -0.000000  -0.000000  -0.000000  -0.289857  -0.000000
    6  O  1  S   -1.444342  -0.000000  -0.000000   0.000000   0.001154
    7  O  1  X   -0.000000  -0.334635  -0.594671   0.000000  -0.000000
    8  O  1  Y   -0.000000  -0.594671   0.334635   0.000000  -0.000000
    9  O  1  Z   -0.000000  -0.000000  -0.000000  -0.754093  -0.000000
   10  O  1  S    3.148266  -0.000000  -0.000000   0.000000  -0.096061
   11  O  1  X   -0.000000   0.565153   1.004320   0.000000  -0.000000
   12  O  1  Y   -0.000000   1.004320  -0.565153   0.000000  -0.000000
   13  O  1  Z   -0.000000  -0.000000  -0.000000   1.083712  -0.000000
   14  O  1 XX   -0.058338  -0.000000  -0.000000   0.000000   0.004232
   15  O  1 YY   -0.058338  -0.000000  -0.000000   0.000000   0.004232
   16  O  1 ZZ   -0.064533  -0.000000  -0.000000   0.000000  -0.001083
   17  O  1 XY   -0.000000  -0.000000  -0.000000   0.000000  -0.000000
   18  O  1 XZ   -0.000000  -0.000000  -0.000000   0.000000  -0.000000
   19  O  1 YZ   -0.000000  -0.000000  -0.000000   0.000000  -0.000000
   20  O  1 XX   -0.780823  -0.000000  -0.000000   0.000000  -0.454868
   21  O  1 YY   -0.780823  -0.000000  -0.000000   0.000000  -0.454868
   22  O  1 ZZ   -0.768374  -0.000000  -0.000000   0.000000   1.046964
   23  O  1 XY   -0.000000  -0.000000  -0.000000   0.000000  -0.000000
   24  O  1 XZ   -0.000000  -0.000000  -0.000000   0.000000  -0.000000
   25  O  1 YZ   -0.000000  -0.000000  -0.000000   0.000000  -0.000000
   26  O  1 XXX  -0.000000  -0.033865  -0.060181   0.000000  -0.000000
   27  O  1 YYY  -0.000000  -0.060181   0.033865   0.000000  -0.000000
   28  O  1 ZZZ  -0.000000  -0.000000  -0.000000  -0.081454  -0.000000
   29  O  1 XXY  -0.000000  -0.026914   0.015145   0.000000  -0.000000
   30  O  1 XXZ  -0.000000  -0.000000  -0.000000  -0.030400  -0.000000
   31  O  1 YYX  -0.000000  -0.015145  -0.026914   0.000000  -0.000000
   32  O  1 YYZ  -0.000000  -0.000000  -0.000000  -0.030400  -0.000000
   33  O  1 ZZX  -0.000000  -0.017332  -0.030801   0.000000  -0.000000
   34  O  1 ZZY  -0.000000  -0.030801   0.017332   0.000000  -0.000000
   35  O  1 XYZ  -0.000000  -0.000000  -0.000000   0.000000  -0.000000

                     11         12         13         14         15
                    1.6898     1.6898     1.7131     1.7131     2.7785
                     A          A          A          A          A   
    1  O  1  S   -0.000000  -0.000000  -0.000000  -0.000000  -0.127073
    2  O  1  S   -0.000000  -0.000000  -0.000000  -0.000000  -0.406473
    3  O  1  X   -0.000000  -0.000000  -0.000000  -0.000000   0.000000
    4  O  1  Y   -0.000000  -0.000000  -0.000000  -0.000000   0.000000
    5  O  1  Z   -0.000000  -0.000000  -0.000000  -0.000000   0.000000
    6  O  1  S   -0.000000  -0.000000  -0.000000  -0.000000   0.555342
    7  O  1  X   -0.000000  -0.000000  -0.000000  -0.000000   0.000000
    8  O  1  Y   -0.000000  -0.000000  -0.000000  -0.000000   0.000000
    9  O  1  Z   -0.000000  -0.000000  -0.000000  -0.000000   0.000000
   10  O  1  S   -0.000000  -0.000000  -0.000000  -0.000000   2.949387
   11  O  1  X   -0.000000  -0.000000  -0.000000  -0.000000   0.000000
   12  O  1  Y   -0.000000  -0.000000  -0.000000  -0.000000   0.000000
   13  O  1  Z   -0.000000  -0.000000  -0.000000  -0.000000   0.000000
   14  O  1 XX   -0.000000  -0.000000  -0.000113   0.001476  -0.126784
   15  O  1 YY   -0.000000  -0.000000   0.000113  -0.001476  -0.126784
   16  O  1 ZZ   -0.000000  -0.000000  -0.000000  -0.000000  -0.110413
   17  O  1 XY   -0.000000  -0.000000   0.001704   0.000130   0.000000
   18  O  1 XZ    0.000805  -0.001701  -0.000000  -0.000000   0.000000
   19  O  1 YZ   -0.001701  -0.000805  -0.000000  -0.000000   0.000000
   20  O  1 XX   -0.000000  -0.000000  -0.065945   0.862830  -1.552528
   21  O  1 YY   -0.000000  -0.000000   0.065945  -0.862830  -1.552528
   22  O  1 ZZ   -0.000000  -0.000000  -0.000000  -0.000000  -1.519763
   23  O  1 XY   -0.000000  -0.000000   0.996310   0.076147   0.000000
   24  O  1 XZ   -0.428177   0.904647  -0.000000  -0.000000   0.000000
   25  O  1 YZ    0.904647   0.428177  -0.000000  -0.000000   0.000000
   26  O  1 XXX  -0.000000  -0.000000  -0.000000  -0.000000   0.000000
   27  O  1 YYY  -0.000000  -0.000000  -0.000000  -0.000000   0.000000
   28  O  1 ZZZ  -0.000000  -0.000000  -0.000000  -0.000000   0.000000
   29  O  1 XXY  -0.000000  -0.000000  -0.000000  -0.000000   0.000000
   30  O  1 XXZ  -0.000000  -0.000000  -0.000000  -0.000000   0.000000
   31  O  1 YYX  -0.000000  -0.000000  -0.000000  -0.000000   0.000000
   32  O  1 YYZ  -0.000000  -0.000000  -0.000000  -0.000000   0.000000
   33  O  1 ZZX  -0.000000  -0.000000  -0.000000  -0.000000   0.000000
   34  O  1 ZZY  -0.000000  -0.000000  -0.000000  -0.000000   0.000000
   35  O  1 XYZ  -0.000000  -0.000000  -0.000000  -0.000000   0.000000

                     16         17         18         19         20
                    4.8774     4.9209     4.9209     5.3436     5.3549
                     A          A          A          A          A   
    1  O  1  S   -0.000000  -0.000000  -0.000000  -0.000000  -0.000000
    2  O  1  S   -0.000000  -0.000000  -0.000000  -0.000000  -0.000000
    3  O  1  X   -0.000000  -0.018318  -0.743250  -0.000000   0.011847
    4  O  1  Y   -0.000000  -0.743250   0.018318  -0.000000   0.047599
    5  O  1  Z   -0.738538  -0.000000  -0.000000   0.054472  -0.000000
    6  O  1  S   -0.000000  -0.000000  -0.000000  -0.000000  -0.000000
    7  O  1  X   -0.000000  -0.014836  -0.601958  -0.000000   0.008537
    8  O  1  Y   -0.000000  -0.601958   0.014836  -0.000000   0.034298
    9  O  1  Z   -0.667331  -0.000000  -0.000000   0.043700  -0.000000
   10  O  1  S   -0.000000  -0.000000  -0.000000  -0.000000  -0.000000
   11  O  1  X   -0.000000  -0.010877  -0.441317  -0.000000   0.007597
   12  O  1  Y   -0.000000  -0.441317   0.010877  -0.000000   0.030520
   13  O  1  Z   -0.432099  -0.000000  -0.000000   0.034795  -0.000000
   14  O  1 XX   -0.000000  -0.000000  -0.000000  -0.000000  -0.000000
   15  O  1 YY   -0.000000  -0.000000  -0.000000  -0.000000  -0.000000
   16  O  1 ZZ   -0.000000  -0.000000  -0.000000  -0.000000  -0.000000
   17  O  1 XY   -0.000000  -0.000000  -0.000000  -0.000000  -0.000000
   18  O  1 XZ   -0.000000  -0.000000  -0.000000  -0.000000  -0.000000
   19  O  1 YZ   -0.000000  -0.000000  -0.000000  -0.000000  -0.000000
   20  O  1 XX   -0.000000  -0.000000  -0.000000  -0.000000  -0.000000
   21  O  1 YY   -0.000000  -0.000000  -0.000000  -0.000000  -0.000000
   22  O  1 ZZ   -0.000000  -0.000000  -0.000000  -0.000000  -0.000000
   23  O  1 XY   -0.000000  -0.000000  -0.000000  -0.000000  -0.000000
   24  O  1 XZ   -0.000000  -0.000000  -0.000000  -0.000000  -0.000000
   25  O  1 YZ   -0.000000  -0.000000  -0.000000  -0.000000  -0.000000
   26  O  1 XXX  -0.000000   0.025623   1.039670  -0.000000  -0.165727
   27  O  1 YYY  -0.000000   1.039670  -0.025623  -0.000000  -0.665835
   28  O  1 ZZZ   1.185358  -0.000000  -0.000000   0.910562  -0.000000
   29  O  1 XXY  -0.000000   0.464955  -0.011459  -0.000000  -0.297771
   30  O  1 XXZ   0.442866  -0.000000  -0.000000  -0.707354  -0.000000
   31  O  1 YYX  -0.000000   0.011459   0.464955  -0.000000  -0.074115
   32  O  1 YYZ   0.442866  -0.000000  -0.000000  -0.707354  -0.000000
   33  O  1 ZZX  -0.000000   0.013810   0.560323  -0.000000   0.255801
   34  O  1 ZZY  -0.000000   0.560323  -0.013810  -0.000000   1.027724
   35  O  1 XYZ  -0.000000  -0.000000  -0.000000  -0.000000  -0.000000

                     21         22         23         24         25
                    5.3549     5.3893     5.3893     5.4509     5.4509
                     A          A          A          A          A   
    1  O  1  S   -0.000000   0.000000  -0.000000  -0.000000   0.000000
    2  O  1  S   -0.000000   0.000000  -0.000000  -0.000000   0.000000
    3  O  1  X    0.047599   0.000000  -0.000000  -0.000000   0.000000
    4  O  1  Y   -0.011847   0.000000  -0.000000  -0.000000   0.000000
    5  O  1  Z   -0.000000   0.000000  -0.000000  -0.000000   0.000000
    6  O  1  S   -0.000000   0.000000  -0.000000  -0.000000   0.000000
    7  O  1  X    0.034298   0.000000  -0.000000  -0.000000   0.000000
    8  O  1  Y   -0.008537   0.000000  -0.000000  -0.000000   0.000000
    9  O  1  Z   -0.000000   0.000000  -0.000000  -0.000000   0.000000
   10  O  1  S   -0.000000   0.000000  -0.000000  -0.000000   0.000000
   11  O  1  X    0.030520   0.000000  -0.000000  -0.000000   0.000000
   12  O  1  Y   -0.007597   0.000000  -0.000000  -0.000000   0.000000
   13  O  1  Z   -0.000000   0.000000  -0.000000  -0.000000   0.000000
   14  O  1 XX   -0.000000   0.000000  -0.000000  -0.000000   0.000000
   15  O  1 YY   -0.000000   0.000000  -0.000000  -0.000000   0.000000
   16  O  1 ZZ   -0.000000   0.000000  -0.000000  -0.000000   0.000000
   17  O  1 XY   -0.000000   0.000000  -0.000000  -0.000000   0.000000
   18  O  1 XZ   -0.000000   0.000000  -0.000000  -0.000000   0.000000
   19  O  1 YZ   -0.000000   0.000000  -0.000000  -0.000000   0.000000
   20  O  1 XX   -0.000000   0.000000  -0.000000  -0.000000   0.000000
   21  O  1 YY   -0.000000   0.000000  -0.000000  -0.000000   0.000000
   22  O  1 ZZ   -0.000000   0.000000  -0.000000  -0.000000   0.000000
   23  O  1 XY   -0.000000   0.000000  -0.000000  -0.000000   0.000000
   24  O  1 XZ   -0.000000   0.000000  -0.000000  -0.000000   0.000000
   25  O  1 YZ   -0.000000   0.000000  -0.000000  -0.000000   0.000000
   26  O  1 XXX  -0.665835   0.000000  -0.000000  -0.114695  -0.782205
   27  O  1 YYY   0.165727   0.000000  -0.000000  -0.782205   0.114695
   28  O  1 ZZZ  -0.000000   0.000000  -0.000000  -0.000000   0.000000
   29  O  1 XXY   0.074115   0.000000  -0.000000   1.049439  -0.153879
   30  O  1 XXZ  -0.000000   0.180680  -0.846968  -0.000000   0.000000
   31  O  1 YYX  -0.297771   0.000000  -0.000000   0.153879   1.049439
   32  O  1 YYZ  -0.000000  -0.180680   0.846968  -0.000000   0.000000
   33  O  1 ZZX   1.027724   0.000000  -0.000000  -0.000000   0.000000
   34  O  1 ZZY  -0.255801   0.000000  -0.000000  -0.000000   0.000000
   35  O  1 XYZ  -0.000000   0.977994   0.208632  -0.000000   0.000000

                     26         27         28         29         30
                    7.1052     7.1239     7.1239     7.1830     7.1830
                     A          A          A          A          A   
    1  O  1  S    0.001756  -0.000000  -0.000000   0.000000  -0.000000
    2  O  1  S    0.010285  -0.000000  -0.000000   0.000000  -0.000000
    3  O  1  X    0.000000  -0.000000  -0.000000   0.000000  -0.000000
    4  O  1  Y    0.000000  -0.000000  -0.000000   0.000000  -0.000000
    5  O  1  Z    0.000000  -0.000000  -0.000000   0.000000  -0.000000
    6  O  1  S   -0.037918  -0.000000  -0.000000   0.000000  -0.000000
    7  O  1  X    0.000000  -0.000000  -0.000000   0.000000  -0.000000
    8  O  1  Y    0.000000  -0.000000  -0.000000   0.000000  -0.000000
    9  O  1  Z    0.000000  -0.000000  -0.000000   0.000000  -0.000000
   10  O  1  S   -0.024562  -0.000000  -0.000000   0.000000  -0.000000
   11  O  1  X    0.000000  -0.000000  -0.000000   0.000000  -0.000000
   12  O  1  Y    0.000000  -0.000000  -0.000000   0.000000  -0.000000
   13  O  1  Z    0.000000  -0.000000  -0.000000   0.000000  -0.000000
   14  O  1 XX   -0.550842  -0.000000  -0.000000   0.057693  -0.972468
   15  O  1 YY   -0.550842  -0.000000  -0.000000  -0.057693   0.972468
   16  O  1 ZZ    1.136376  -0.000000  -0.000000   0.000000  -0.000000
   17  O  1 XY    0.000000  -0.000000  -0.000000   1.122910   0.066618
   18  O  1 XZ    0.000000   0.152642   1.114479   0.000000  -0.000000
   19  O  1 YZ    0.000000   1.114479  -0.152642   0.000000  -0.000000
   20  O  1 XX    0.274509  -0.000000  -0.000000  -0.026498   0.446652
   21  O  1 YY    0.274509  -0.000000  -0.000000   0.026498  -0.446652
   22  O  1 ZZ   -0.493786  -0.000000  -0.000000   0.000000  -0.000000
   23  O  1 XY    0.000000  -0.000000  -0.000000  -0.515750  -0.030597
   24  O  1 XZ    0.000000  -0.069675  -0.508715   0.000000  -0.000000
   25  O  1 YZ    0.000000  -0.508715   0.069675   0.000000  -0.000000
   26  O  1 XXX   0.000000  -0.000000  -0.000000   0.000000  -0.000000
   27  O  1 YYY   0.000000  -0.000000  -0.000000   0.000000  -0.000000
   28  O  1 ZZZ   0.000000  -0.000000  -0.000000   0.000000  -0.000000
   29  O  1 XXY   0.000000  -0.000000  -0.000000   0.000000  -0.000000
   30  O  1 XXZ   0.000000  -0.000000  -0.000000   0.000000  -0.000000
   31  O  1 YYX   0.000000  -0.000000  -0.000000   0.000000  -0.000000
   32  O  1 YYZ   0.000000  -0.000000  -0.000000   0.000000  -0.000000
   33  O  1 ZZX   0.000000  -0.000000  -0.000000   0.000000  -0.000000
   34  O  1 ZZY   0.000000  -0.000000  -0.000000   0.000000  -0.000000
   35  O  1 XYZ   0.000000  -0.000000  -0.000000   0.000000  -0.000000

                     31         32         33         34         35
                   16.7896    16.8527    16.8805    16.8805    63.3710
                     A          A          A          A          A   
    1  O  1  S   -0.000000   0.041927  -0.000000  -0.000000   2.614122
    2  O  1  S   -0.000000  -1.973306  -0.000000  -0.000000  -3.859892
    3  O  1  X    0.000000   0.000000  -1.895303  -2.851212  -0.000000
    4  O  1  Y   -0.000000   0.000000  -2.851212   1.895303  -0.000000
    5  O  1  Z   -3.427312   0.000000  -0.000000  -0.000000  -0.000000
    6  O  1  S   -0.000000   8.427966  -0.000000  -0.000000   4.964195
    7  O  1  X   -0.000000   0.000000   7.032120  10.578819  -0.000000
    8  O  1  Y    0.000000   0.000000  10.578819  -7.032120  -0.000000
    9  O  1  Z   12.698780   0.000000  -0.000000   0.000000  -0.000000
   10  O  1  S   -0.000000   2.319686  -0.000000  -0.000000   1.814711
   11  O  1  X   -0.000000   0.000000  -0.311037  -0.467910  -0.000000
   12  O  1  Y   -0.000000   0.000000  -0.467910   0.311037  -0.000000
   13  O  1  Z   -0.562508   0.000000  -0.000000  -0.000000  -0.000000
   14  O  1 XX   -0.000000  -3.206439  -0.000000  -0.000000  -1.828999
   15  O  1 YY   -0.000000  -3.206439  -0.000000  -0.000000  -1.828999
   16  O  1 ZZ   -0.000000  -3.200736  -0.000000  -0.000000  -1.829221
   17  O  1 XY   -0.000000   0.000000  -0.000000  -0.000000  -0.000000
   18  O  1 XZ   -0.000000   0.000000  -0.000000  -0.000000  -0.000000
   19  O  1 YZ   -0.000000   0.000000  -0.000000  -0.000000  -0.000000
   20  O  1 XX   -0.000000  -1.865866  -0.000000  -0.000000  -1.330941
   21  O  1 YY   -0.000000  -1.865866  -0.000000  -0.000000  -1.330941
   22  O  1 ZZ   -0.000000  -1.868986  -0.000000  -0.000000  -1.330934
   23  O  1 XY   -0.000000   0.000000  -0.000000  -0.000000  -0.000000
   24  O  1 XZ   -0.000000   0.000000  -0.000000  -0.000000  -0.000000
   25  O  1 YZ   -0.000000   0.000000  -0.000000  -0.000000  -0.000000
   26  O  1 XXX   0.000000   0.000000  -3.824182  -5.752935  -0.000000
   27  O  1 YYY  -0.000000   0.000000  -5.752935   3.824182  -0.000000
   28  O  1 ZZZ  -6.903757   0.000000  -0.000000  -0.000000  -0.000000
   29  O  1 XXY  -0.000000   0.000000  -2.572791   1.710226  -0.000000
   30  O  1 XXZ  -3.087576   0.000000  -0.000000  -0.000000  -0.000000
   31  O  1 YYX   0.000000   0.000000  -1.710226  -2.572791  -0.000000
   32  O  1 YYZ  -3.087576   0.000000  -0.000000  -0.000000  -0.000000
   33  O  1 ZZX   0.000000   0.000000  -1.710163  -2.572696  -0.000000
   34  O  1 ZZY  -0.000000   0.000000  -2.572696   1.710163  -0.000000
   35  O  1 XYZ  -0.000000   0.000000  -0.000000  -0.000000  -0.000000
 ...... END OF RHF CALCULATION ......
 STEP CPU TIME =     0.01 TOTAL CPU TIME =          0.0 (      0.0 MIN)
 TOTAL WALL CLOCK TIME=          0.0 SECONDS, CPU UTILIZATION IS    66.67%

     ----------------------------------------------------------------
     PROPERTY VALUES FOR THE RHF   SELF-CONSISTENT FIELD WAVEFUNCTION
     ----------------------------------------------------------------

          -----------------
          ENERGY COMPONENTS
          -----------------

         WAVEFUNCTION NORMALIZATION =       1.0000000000

                ONE ELECTRON ENERGY =    -103.1488500886
                TWO ELECTRON ENERGY =      28.4686379458
           NUCLEAR REPULSION ENERGY =       0.0000000000
                                      ------------------
                       TOTAL ENERGY =     -74.6802121428

 ELECTRON-ELECTRON POTENTIAL ENERGY =      28.4686379458
  NUCLEUS-ELECTRON POTENTIAL ENERGY =    -177.8127500424
   NUCLEUS-NUCLEUS POTENTIAL ENERGY =       0.0000000000
                                      ------------------
             TOTAL POTENTIAL ENERGY =    -149.3441120966
               TOTAL KINETIC ENERGY =      74.6638999538
                 VIRIAL RATIO (V/T) =       2.0002184749

          ---------------------------------------
          MULLIKEN AND LOWDIN POPULATION ANALYSES
          ---------------------------------------

     ATOMIC MULLIKEN POPULATION IN EACH MOLECULAR ORBITAL

                      1          2          3          4

                  2.000000   2.000000   2.000000   2.000000

    1             2.000000   2.000000   2.000000   2.000000

               ----- POPULATIONS IN EACH AO -----
                             MULLIKEN      LOWDIN
              1  O  1  S      1.08417     1.03354
              2  O  1  S      0.91162     0.92796
              3  O  1  X      0.43151     0.42341
              4  O  1  Y      0.43151     0.42341
              5  O  1  Z      0.00000     0.00000
              6  O  1  S      1.11269     0.48052
              7  O  1  X      0.87263     0.48917
              8  O  1  Y      0.87263     0.48917
              9  O  1  Z      0.00000     0.00000
             10  O  1  S      0.76513     0.44287
             11  O  1  X      0.68933     0.55359
             12  O  1  Y      0.68933     0.55359
             13  O  1  Z      0.00000     0.00000
             14  O  1 XX      0.01161     0.18769
             15  O  1 YY      0.01161     0.18769
             16  O  1 ZZ      0.00939     0.18428
             17  O  1 XY      0.00000     0.00000
             18  O  1 XZ      0.00000     0.00000
             19  O  1 YZ      0.00000     0.00000
             20  O  1 XX      0.03457     0.18771
             21  O  1 YY      0.03457     0.18771
             22  O  1 ZZ      0.02461     0.18003
             23  O  1 XY      0.00000     0.00000
             24  O  1 XZ      0.00000     0.00000
             25  O  1 YZ      0.00000     0.00000
             26  O  1 XXX    -0.00320     0.27593
             27  O  1 YYY    -0.00320     0.27593
             28  O  1 ZZZ     0.00000     0.00000
             29  O  1 XXY    -0.00107     0.12480
             30  O  1 XXZ     0.00000     0.00000
             31  O  1 YYX    -0.00107     0.12480
             32  O  1 YYZ     0.00000     0.00000
             33  O  1 ZZX     0.01079     0.13310
             34  O  1 ZZY     0.01079     0.13310
             35  O  1 XYZ     0.00000     0.00000

          ----- MULLIKEN ATOMIC OVERLAP POPULATIONS -----
          (OFF-DIAGONAL ELEMENTS NEED TO BE MULTIPLIED BY 2)

             1

    1    8.0000000

          TOTAL MULLIKEN AND LOWDIN ATOMIC POPULATIONS
       ATOM         MULL.POP.    CHARGE          LOW.POP.     CHARGE
    1 O             8.000000   -0.000000         8.000000    0.000000

          -------------------------------
          BOND ORDER AND VALENCE ANALYSIS     BOND ORDER THRESHOLD=0.050
          -------------------------------

                   BOND                       BOND                       BOND
  ATOM PAIR DIST  ORDER      ATOM PAIR DIST  ORDER      ATOM PAIR DIST  ORDER

                       TOTAL       BONDED        FREE
      ATOM            VALENCE     VALENCE     VALENCE
    1 O                 0.000       0.000       0.000

          ---------------------
          ELECTROSTATIC MOMENTS
          ---------------------

 POINT   1           X           Y           Z (BOHR)    CHARGE
                 0.000000    0.000000    0.000000       -0.00 (A.U.)
         DX          DY          DZ         /D/  (DEBYE)
     0.000000    0.000000    0.000000    0.000000
 ...... END OF PROPERTY EVALUATION ......
 STEP CPU TIME =     0.00 TOTAL CPU TIME =          0.0 (      0.0 MIN)
 TOTAL WALL CLOCK TIME=          0.0 SECONDS, CPU UTILIZATION IS    66.67%
               580000  WORDS OF DYNAMIC MEMORY USED
 EXECUTION OF GAMESS TERMINATED NORMALLY Fri Jun 14 16:22:20 2019
 DDI: 263640 bytes (0.3 MB / 0 MWords) used by master data server.

 ----------------------------------------
 CPU timing information for all processes
 ========================================
 0: 0.20 + 0.04 = 0.24
 ----------------------------------------
 ddikick.x: exited gracefully.
----- accounting info -----
Files used on the master node amlan-PT-3420 were:
-rw-rw-r-- 1 akroy akroy   21225 Jun 14 16:22 /tmp/o_atom_6_311g2df2pd_all.dat
-rw-rw-r-- 1 akroy akroy     242 Jun 14 16:22 /tmp/o_atom_6_311g2df2pd_all.F05
-rw-rw-r-- 1 akroy akroy  360032 Jun 14 16:22 /tmp/o_atom_6_311g2df2pd_all.F08
-rw-rw-r-- 1 akroy akroy 1537840 Jun 14 16:22 /tmp/o_atom_6_311g2df2pd_all.F10
Fri Jun 14 16:22:23 IST 2019
0.0u 0.0s 0:03.13 0.9% 0+0k 0+24io 0pf+0w
