----- GAMESS execution script 'rungms' -----
This job is running on host amlan-PT-3420
under operating system Linux at Fri Dec 13 16:25:18 IST 2019
Available scratch disk space (Kbyte units) at beginning of the job is
Filesystem      1K-blocks     Used  Available Use% Mounted on
/dev/sda3      1916812448 68416888 1751004048   4% /
GAMESS temporary binary files will be written to /tmp
GAMESS supplementary output files will be written to /tmp
Copying input file cl2_b3lyp.inp to your run's scratch directory...

 Distributed Data Interface kickoff program.
 Initiating 1 compute processes on 1 nodes to run the following command:
 /home/akroy/gamess/gamess.01.x cl2_b3lyp 

          ******************************************************
          *         GAMESS VERSION = 30 SEP 2018 (R3)         *
          *             FROM IOWA STATE UNIVERSITY             *
          * M.W.SCHMIDT, K.K.BALDRIDGE, J.A.BOATZ, S.T.ELBERT, *
          *   M.S.GORDON, J.H.JENSEN, S.KOSEKI, N.MATSUNAGA,   *
          *          K.A.NGUYEN, S.J.SU, T.L.WINDUS,           *
          *       TOGETHER WITH M.DUPUIS, J.A.MONTGOMERY       *
          *         J.COMPUT.CHEM.  14, 1347-1363(1993)        *
          **************** 64 BIT LINUX VERSION ****************

  SINCE 1993, STUDENTS AND POSTDOCS WORKING AT IOWA STATE UNIVERSITY
  AND ALSO IN THEIR VARIOUS JOBS AFTER LEAVING ISU HAVE MADE IMPORTANT
  CONTRIBUTIONS TO THE CODE:
     IVANA ADAMOVIC, CHRISTINE AIKENS, YURI ALEXEEV, POOJA ARORA,
     ANDREY ASADCHEV, ROB BELL, PRADIPTA BANDYOPADHYAY, JONATHAN BENTZ,
     BRETT BODE, KURT BRORSEN, CALEB CARLIN, GALINA CHABAN, WEI CHEN,
     CHEOL HO CHOI, PAUL DAY, ALBERT DEFUSCO, NUWAN DESILVA, TIM DUDLEY,
     DMITRI FEDOROV, ALEX FINDLATER, GRAHAM FLETCHER, MARK FREITAG,
     KURT GLAESEMANN, ANASTASIA GUNINA,
     DAN KEMP, GRANT MERRILL, NORIYUKI MINEZAWA, JONATHAN MULLIN,
     TAKESHI NAGATA, SEAN NEDD, HEATHER NETZLOFF, BOSILJKA NJEGIC, RYAN OLSON,
     MIKE PAK, BUU PHAM,
     SPENCER PRUITT, LUKE ROSKOP, JIM SHOEMAKER, LYUDMILA SLIPCHENKO,
     TONY SMITH, SAROM SOK LEANG, JIE SONG, TETSUYA TAKETSUGU, SIMON WEBB,
     PENG XU, SOOHAENG YOO, FEDERICO ZAHARIEV

  ADDITIONAL CODE HAS BEEN PROVIDED BY COLLABORATORS IN OTHER GROUPS:
     IOWA STATE UNIVERSITY:
          JOE IVANIC, AARON WEST, LAIMUTIS BYTAUTAS, KLAUS RUEDENBERG
     UNIVERSITY OF TOKYO: KIMIHIKO HIRAO, TAKAHITO NAKAJIMA,
          TAKAO TSUNEDA, MUNEAKI KAMIYA, SUSUMU YANAGISAWA,
          KIYOSHI YAGI, MAHITO CHIBA, SEIKEN TOKURA, NAOAKI KAWAKAMI
     UNIVERSITY OF AARHUS: FRANK JENSEN
     UNIVERSITY OF IOWA: VISVALDAS KAIRYS, HUI LI
     NATIONAL INST. OF STANDARDS AND TECHNOLOGY: WALT STEVENS, DAVID GARMER
     UNIVERSITY OF PISA: BENEDETTA MENNUCCI, JACOPO TOMASI
     UNIVERSITY OF MEMPHIS: HENRY KURTZ, PRAKASHAN KORAMBATH
     UNIVERSITY OF ALBERTA: TOBY ZENG, MARIUSZ KLOBUKOWSKI
     UNIVERSITY OF NEW ENGLAND: MARK SPACKMAN
     MIE UNIVERSITY: HIROAKI UMEDA
     NAT. INST. OF ADVANCED INDUSTRIAL SCIENCE AND TECHNOLOGY: KAZUO KITAURA
     MICHIGAN STATE UNIVERSITY:
          KAROL KOWALSKI, MARTA WLOCH, JEFFREY GOUR, JESSE LUTZ,
          WEI LI, JUN SHEN, J. EMILIANO DEUSTUA, PIOTR PIECUCH
     UNIVERSITY OF MINNESOTA:
          YINAN SHU
     UNIVERSITY OF SILESIA: MONIKA MUSIAL, STANISLAW KUCHARSKI
     FACULTES UNIVERSITAIRES NOTRE-DAME DE LA PAIX:
          OLIVIER QUINET, BENOIT CHAMPAGNE
     UNIVERSITY OF CALIFORNIA - SANTA BARBARA: BERNARD KIRTMAN
     INSTITUTE FOR MOLECULAR SCIENCE:
          KAZUYA ISHIMURA, MICHIO KATOUDA, AND SHIGERU NAGASE
     UNIVERSITY OF NOTRE DAME: ANNA POMOGAEVA, DAN CHIPMAN
     KYUSHU UNIVERSITY:
          HARUYUKI NAKANO,
          FENG LONG GU, JACEK KORCHOWIEC, MARCIN MAKOWSKI, AND YURIKO AOKI,
          HIROTOSHI MORI AND EISAKU MIYOSHI
     PENNSYLVANIA STATE UNIVERSITY:
          TZVETELIN IORDANOV, CHET SWALINA, JONATHAN SKONE,
          SHARON HAMMES-SCHIFFER
     WASEDA UNIVERSITY:
          MASATO KOBAYASHI, TOMOKO AKAMA, TSUGUKI TOUMA,
          TAKESHI YOSHIKAWA, YASUHIRO IKABATA, JUNJI SEINO,
          YUYA NAKAJIMA, HIROMI NAKAI
     NANJING UNIVERSITY: SHUHUA LI
     UNIVERSITY OF NEBRASKA:
          PEIFENG SU, DEJUN SI, NANDUN THELLAMUREGE, YALI WANG, HUI LI
     UNIVERSITY OF ZURICH: ROBERTO PEVERATI, KIM BALDRIDGE
     N. COPERNICUS UNIVERSITY AND JACKSON STATE UNIVERSITY:
          MARIA BARYSZ
     UNIVERSITY OF COPENHAGEN: Jimmy Kromann, CASPER STEINMANN
     TOKYO INSTITUTE OF TECHNOLOGY: HIROYA NAKATA
     NAGOYA UNIVERSITY: YOSHIO NISHIMOTO, STEPHAN IRLE
     MOSCOW STATE UNIVERSITY: VLADIMIR MIRONOV

 EXECUTION OF GAMESS BEGUN Fri Dec 13 16:25:18 2019

            ECHO OF THE FIRST FEW INPUT CARDS -
 INPUT CARD> $CONTRL SCFTYP=UHF RUNTYP=ENERGY COORD=CART UNITS=ANGS MULT=3 $END             
 INPUT CARD> $SYSTEM MWORDS=200 $END                                                        
 INPUT CARD> $DFT METHOD=GRID DFTTYP=B3LYP $END                                             
 INPUT CARD> $BASIS EXTFIL=.TRUE. GBASIS=6311GDS $END                                       
 INPUT CARD> $GUESS GUESS=HUCKEL $END                                                       
 INPUT CARD> $DATA                                                                          
 INPUT CARD>FLUORINE                                                                        
 INPUT CARD>C1                                                                              
 INPUT CARD>CL   17.0   0.0000   0.0000   0.0000                                            
 INPUT CARD>CL   17.0   0.0000   0.0000   1.9879                                            
 INPUT CARD> $END                                                                           
 INPUT CARD>~                                                                               
  200000000 WORDS OF MEMORY AVAILABLE


                    * * * WARNING * * *
 OLD KEYWORD COORD=CART SELECTED, AUTOMATICALLY CHANGED TO COORD=PRINAXIS.
 YOUR MOLECULE'S COORDINATES WILL BE CHANGED TO PRINCIPAL AXES BY
   A) TRANSLATION TO THE CENTER OF MASS, THEN
   B) ROTATION TO HAVE A DIAGONAL MOMENT OF INERTIA TENSOR.

 HOWEVER, NOTHING ELSE IN YOUR INPUT WILL BE ROTATED IN THE SAME WAY,
 SO IF YOU HAVE A $VEC, $VIB, $GRAD, $HESS, EFP PARTICLE COORDINATES,
 OR ANYTHING ELSE THAT DEPENDS ON THE INITIAL ORIENTATION, THAT DATA
 WILL NOT BE USED CORRECTLY IN THIS RUN.

 THE PURPOSE OF COORD=PRINAXIS IS TO BE USED ONCE, ONLY AT THE VERY
 BEGINNING OF A SERIES OF COMPUTATIONS, PERHAPS TO FIND THE SYMMETRY
 UNIQUE ATOMS FROM AN ARBITRARY INITIAL ORIENTATION.

 AFTER THE FIRST RUN, YOU SHOULD USE ONLY COORD=UNIQUE, TO ENSURE THAT
 THE COORDINATES WHICH YOU READ IN ARE THE COORDINATES THAT ARE USED.


     $BASIS REQUESTS READING THE "6311GDS " BASIS SET FROM AN EXTERNAL FILE


     RUN TITLE
     ---------
 FLUORINE                                                                        

 THE POINT GROUP OF THE MOLECULE IS C1      
 THE ORDER OF THE PRINCIPAL AXIS IS     0

 THE MOMENTS OF INERTIA ARE (AMU-ANGSTROM**2)
 IXX=    69.094   IYY=    69.094   IZZ=     0.000

 THE EXTERNAL BASIS SET FILE BEING READ IS
     "/home/akroy/gamess/EXTFILE.txt"

 ATOM      ATOMIC                      COORDINATES (BOHR)
           CHARGE         X                   Y                   Z
 CL         17.0     0.0000000000        0.0000000000       -1.8782931455
 CL         17.0     0.0000000000        0.0000000000        1.8782931455

          INTERNUCLEAR DISTANCES (ANGS.)
          ------------------------------

                1 CL         2 CL    

   1 CL      0.0000000    1.9879000 *
   2 CL      1.9879000 *  0.0000000  

  * ... LESS THAN  3.000


     ATOMIC BASIS SET
     ----------------
 THE CONTRACTED PRIMITIVE FUNCTIONS HAVE BEEN UNNORMALIZED
 THE CONTRACTED BASIS FUNCTIONS ARE NOW NORMALIZED TO UNITY

  SHELL TYPE  PRIMITIVE        EXPONENT          CONTRACTION COEFFICIENT(S)

 CL        

      1   S       1        105819.0000000    0.000738000247
      1   S       2         15872.0000000    0.005718001910
      1   S       3          3619.6500000    0.029495009853
      1   S       4          1030.8000000    0.117286039181
      1   S       5           339.9080000    0.362949121247
      1   S       6           124.5380000    0.584149195141

      2   S       7           124.5380000    0.134176973388
      2   S       8            49.5135000    0.624249876187
      2   S       9            20.8056000    0.291755942134

      3   S      10             6.5834600    1.000000000000

      4   S      11             2.5646800    1.000000000000

      5   S      12             0.5597630    1.000000000000

      6   S      13             0.1832730    1.000000000000

      7   P      14           589.7760000    0.002390999685
      7   P      15           139.8490000    0.018503997563
      7   P      16            45.1413000    0.081376989284
      7   P      17            16.8733000    0.221551970825
      7   P      18             6.7411000    0.772568898264

      8   P      19             6.7411000   -1.572243812589
      8   P      20             2.7715200    0.992388881708

      9   L      21             0.0483000    1.000000000000    1.000000000000

     10   P      22             1.0238700    1.000000000000

     11   P      23             0.3813680    1.000000000000

     12   P      24             0.1094370    1.000000000000

     13   D      25             0.7500000    1.000000000000

 CL        

     14   S      26        105819.0000000    0.000738000247
     14   S      27         15872.0000000    0.005718001910
     14   S      28          3619.6500000    0.029495009853
     14   S      29          1030.8000000    0.117286039181
     14   S      30           339.9080000    0.362949121247
     14   S      31           124.5380000    0.584149195141

     15   S      32           124.5380000    0.134176973388
     15   S      33            49.5135000    0.624249876187
     15   S      34            20.8056000    0.291755942134

     16   S      35             6.5834600    1.000000000000

     17   S      36             2.5646800    1.000000000000

     18   S      37             0.5597630    1.000000000000

     19   S      38             0.1832730    1.000000000000

     20   P      39           589.7760000    0.002390999685
     20   P      40           139.8490000    0.018503997563
     20   P      41            45.1413000    0.081376989284
     20   P      42            16.8733000    0.221551970825
     20   P      43             6.7411000    0.772568898264

     21   P      44             6.7411000   -1.572243812589
     21   P      45             2.7715200    0.992388881708

     22   L      46             0.0483000    1.000000000000    1.000000000000

     23   P      47             1.0238700    1.000000000000

     24   P      48             0.3813680    1.000000000000

     25   P      49             0.1094370    1.000000000000

     26   D      50             0.7500000    1.000000000000

 TOTAL NUMBER OF BASIS SET SHELLS             =   26
 NUMBER OF CARTESIAN GAUSSIAN BASIS FUNCTIONS =   62
 NUMBER OF ELECTRONS                          =   34
 CHARGE OF MOLECULE                           =    0
 SPIN MULTIPLICITY                            =    3
 NUMBER OF OCCUPIED ORBITALS (ALPHA)          =   18
 NUMBER OF OCCUPIED ORBITALS (BETA )          =   16
 TOTAL NUMBER OF ATOMS                        =    2
 THE NUCLEAR REPULSION ENERGY IS       76.9315483829

 THIS MOLECULE IS RECOGNIZED AS BEING LINEAR,
 ORBITAL LZ DEGENERACY TOLERANCE ETOLLZ= 1.00E-06

 *** WARNING ***
 KEYWORD DFTTYP IN $DFT IS NOW OBSOLETE.
 PLEASE ENTER DFTTYP IN THE $CONTRL GROUP IN FUTURE INPUT FILES.


     LEBEDEV GRID-BASED DFT OPTIONS
     ------------------------------
     DFTTYP=B3LYP   
     NRAD  =      96     NLEB  =     302
     NRAD0 =      24     NLEB0 =     110
     SWOFF =    5.00E-03 (PURE SCF -> DFT)
     SWITCH=    3.00E-04 (COARSE -> TIGHT GRID)
     THRESH=    0.00E+00 GTHRE=    1.00E+00

 GRIMME'S EMPIRICAL DISPERSION CORRECTION= F

     $CONTRL OPTIONS
     ---------------
 SCFTYP=UHF          RUNTYP=ENERGY       EXETYP=RUN     
 MPLEVL=       0     CITYP =NONE         CCTYP =NONE         VBTYP =NONE    
 DFTTYP=B3LYP        TDDFT =NONE    
 MULT  =       3     ICHARG=       0     NZVAR =       0     COORD =PRINAXIS
 PP    =NONE         RELWFN=NONE         LOCAL =NONE         NUMGRD=       F
 ISPHER=      -1     NOSYM =       0     MAXIT =      30     UNITS =ANGS    
 PLTORB=       F     MOLPLT=       F     AIMPAC=       F     FRIEND=        
 NPRINT=       7     IREST =       0     GEOM  =INPUT   
 NORMF =       0     NORMP =       0     ITOL  =      20     ICUT  =       9
 INTTYP=BEST         GRDTYP=BEST         QMTTOL= 1.0E-06

     $SYSTEM OPTIONS
     ---------------
  REPLICATED MEMORY=   200000000 WORDS (ON EVERY NODE).
 DISTRIBUTED MEMDDI=           0 MILLION WORDS IN AGGREGATE,
 MEMDDI DISTRIBUTED OVER   1 PROCESSORS IS           0 WORDS/PROCESSOR.
 TOTAL MEMORY REQUESTED ON EACH PROCESSOR=   200000000 WORDS.
 TIMLIM=      525600.00 MINUTES, OR     365.0 DAYS.
 PARALL= F  BALTYP=  DLB     KDIAG=    0  COREFL= F
 MXSEQ2=     300 MXSEQ3=     150  mem10=         0

          ----------------
          PROPERTIES INPUT
          ----------------

     MOMENTS            FIELD           POTENTIAL          DENSITY
 IEMOM =       1   IEFLD =       0   IEPOT =       0   IEDEN =       0
 WHERE =COMASS     WHERE =NUCLEI     WHERE =NUCLEI     WHERE =NUCLEI  
 OUTPUT=BOTH       OUTPUT=BOTH       OUTPUT=BOTH       OUTPUT=BOTH    
 IEMINT=       0   IEFINT=       0                     IEDINT=       0
                                                       MORB  =       0
          EXTRAPOLATION IN EFFECT
          DIIS IN EFFECT
          DIIS or SOSCF will be reset if energy rises
 ORBITAL PRINTING OPTION: NPREO=     1    62     2     1

     -------------------------------
     INTEGRAL TRANSFORMATION OPTIONS
     -------------------------------
     NWORD  =            0
     CUTOFF = 1.0E-09     MPTRAN =       0
     DIRTRF =       F     AOINTS =DUP     

          ----------------------
          INTEGRAL INPUT OPTIONS
          ----------------------
 NOPK  =       1 NORDER=       0 SCHWRZ=       F

     ------------------------------------------
     THE POINT GROUP IS C1 , NAXIS= 0, ORDER= 1
     ------------------------------------------

     DIMENSIONS OF THE SYMMETRY SUBSPACES ARE
 A   =   62

 ..... DONE SETTING UP THE RUN .....
 STEP CPU TIME =     0.00 TOTAL CPU TIME =          0.0 (      0.0 MIN)
 TOTAL WALL CLOCK TIME=          0.0 SECONDS, CPU UTILIZATION IS   100.00%

          ********************
          1 ELECTRON INTEGRALS
          ********************
 ...... END OF ONE-ELECTRON INTEGRALS ......
 STEP CPU TIME =     0.00 TOTAL CPU TIME =          0.0 (      0.0 MIN)
 TOTAL WALL CLOCK TIME=          0.0 SECONDS, CPU UTILIZATION IS   100.00%

          -------------
          GUESS OPTIONS
          -------------
          GUESS =HUCKEL            NORB  =       0          NORDER=       0
          MIX   =       F          PRTMO =       F          PUNMO =       F
          TOLZ  = 1.0E-08          TOLE  = 1.0E-05
          SYMDEN=       F          PURIFY=       F

 INITIAL GUESS ORBITALS GENERATED BY HUCKEL   ROUTINE.
 HUCKEL GUESS REQUIRES     31346 WORDS.

 SYMMETRIES FOR INITIAL GUESS ORBITALS FOLLOW.  ALPHA SET(S).
    18 ORBITALS ARE OCCUPIED (   10 CORE ORBITALS).
    11=A       12=A       13=A       14=A       15=A       16=A       17=A   
    18=A       19=A       20=A       21=A       22=A       23=A       24=A   
    25=A       26=A       27=A       28=A   

 SYMMETRIES FOR INITIAL GUESS ORBITALS FOLLOW.   BETA SET(S).
    16 ORBITALS ARE OCCUPIED (   10 CORE ORBITALS).
    11=A       12=A       13=A       14=A       15=A       16=A       17=A   
    18=A       19=A       20=A       21=A       22=A       23=A       24=A   
    25=A       26=A   
 ...... END OF INITIAL ORBITAL SELECTION ......
 STEP CPU TIME =     0.01 TOTAL CPU TIME =          0.0 (      0.0 MIN)
 TOTAL WALL CLOCK TIME=          0.0 SECONDS, CPU UTILIZATION IS   100.00%

                    ----------------------
                    AO INTEGRAL TECHNOLOGY
                    ----------------------
     S,P,L SHELL ROTATED AXIS INTEGRALS, REPROGRAMMED BY
        KAZUYA ISHIMURA (IMS) AND JOSE SIERRA (SYNSTAR).
     S,P,D,L SHELL ROTATED AXIS INTEGRALS PROGRAMMED BY
        KAZUYA ISHIMURA (INSTITUTE FOR MOLECULAR SCIENCE).
     S,P,D,F,G SHELL TO TOTAL QUARTET ANGULAR MOMENTUM SUM 5,
        ERIC PROGRAM BY GRAHAM FLETCHER (ELORET AND NASA ADVANCED
        SUPERCOMPUTING DIVISION, AMES RESEARCH CENTER).
     S,P,D,F,G,L SHELL GENERAL RYS QUADRATURE PROGRAMMED BY
        MICHEL DUPUIS (PACIFIC NORTHWEST NATIONAL LABORATORY).

          --------------------
          2 ELECTRON INTEGRALS
          --------------------

 THE -PK- OPTION IS OFF, THE INTEGRALS ARE NOT IN SUPERMATRIX FORM.
 STORING   15000 INTEGRALS/RECORD ON DISK, USING 12 BYTES/INTEGRAL.
 TWO ELECTRON INTEGRAL EVALUATION REQUIRES   90747 WORDS OF MEMORY.
 II,JST,KST,LST =  1  1  1  1 NREC =         1 INTLOC =    1
 II,JST,KST,LST =  2  1  1  1 NREC =         1 INTLOC =    2
 II,JST,KST,LST =  3  1  1  1 NREC =         1 INTLOC =    7
 II,JST,KST,LST =  4  1  1  1 NREC =         1 INTLOC =   22
 II,JST,KST,LST =  5  1  1  1 NREC =         1 INTLOC =   56
 II,JST,KST,LST =  6  1  1  1 NREC =         1 INTLOC =  121
 II,JST,KST,LST =  7  1  1  1 NREC =         1 INTLOC =  232
 II,JST,KST,LST =  8  1  1  1 NREC =         1 INTLOC =  367
 II,JST,KST,LST =  9  1  1  1 NREC =         1 INTLOC =  730
 II,JST,KST,LST = 10  1  1  1 NREC =         1 INTLOC = 1910
 II,JST,KST,LST = 11  1  1  1 NREC =         1 INTLOC = 3338
 II,JST,KST,LST = 12  1  1  1 NREC =         1 INTLOC = 5567
 II,JST,KST,LST = 13  1  1  1 NREC =         1 INTLOC = 8894
 II,JST,KST,LST = 14  1  1  1 NREC =         2 INTLOC = 3821
 II,JST,KST,LST = 15  1  1  1 NREC =         2 INTLOC = 6174
 II,JST,KST,LST = 16  1  1  1 NREC =         2 INTLOC = 9331
 II,JST,KST,LST = 17  1  1  1 NREC =         2 INTLOC =13262
 II,JST,KST,LST = 18  1  1  1 NREC =         3 INTLOC = 3103
 II,JST,KST,LST = 19  1  1  1 NREC =         3 INTLOC =10355
 II,JST,KST,LST = 20  1  1  1 NREC =         4 INTLOC = 3507
 II,JST,KST,LST = 21  1  1  1 NREC =         5 INTLOC = 4279
 II,JST,KST,LST = 22  1  1  1 NREC =         6 INTLOC =10089
 II,JST,KST,LST = 23  1  1  1 NREC =         9 INTLOC =12829
 II,JST,KST,LST = 24  1  1  1 NREC =        12 INTLOC = 8387
 II,JST,KST,LST = 25  1  1  1 NREC =        15 INTLOC =13963
 II,JST,KST,LST = 26  1  1  1 NREC =        19 INTLOC =13910
 TOTAL NUMBER OF NONZERO TWO-ELECTRON INTEGRALS =              429780
         29 INTEGRAL RECORDS WERE STORED ON DISK FILE  8.
  ...... END OF TWO-ELECTRON INTEGRALS .....
 STEP CPU TIME =     0.09 TOTAL CPU TIME =          0.1 (      0.0 MIN)
 TOTAL WALL CLOCK TIME=          0.1 SECONDS, CPU UTILIZATION IS   100.00%

          ---------------------------
              U-B3LYP SCF CALCULATION
          ---------------------------

     NUCLEAR ENERGY =        76.9315483829
     MAXIT = 30     NPUNCH=  2     MULT=  3
     EXTRAP=T  DAMP=F  SHIFT=F  RSTRCT=F  DIIS=T  SOSCF=F
         DENSITY MATRIX CONVERGENCE THRESHOLD=  1.00E-05
     COARSE -> FINE DFT GRID SWITCH THRESHOLD=  3.00E-04 (SWITCH IN $DFT)
                   HF -> DFT SWITCH THRESHOLD=  5.00E-03 (SWOFF IN $DFT)
     MEMORY REQUIRED FOR UHF/ROHF ITERS=    177654 WORDS.

 DFT CODE IS SWITCHING FROM THE FINE GRID NRAD= 96,  NLEB=  302
                      TO THE COARSE GRID NRAD0= 24, NLEB0=  110

     EXCHANGE FUNCTIONAL   =B88&HFX   
     CORRELATION FUNCTIONAL=LYP88&VWN5
     DFT THRESHOLD         =.690E-07
     GRID CHANGE THRESHOLD =.300E-03
 FOR AN EULER-MACLAURIN QUADRATURE USING  96 RADIAL POINTS:
 SMALLEST GAUSSIAN PRIMITIVE EXPONENT=        0.0483000000 OF TYPE -P-
 ON ATOM NUMBER   1 HAS RADIAL NORMALIZATION=  1.000000
  LARGEST GAUSSIAN PRIMITIVE EXPONENT=   105819.0000000000 OF TYPE -S-
 ON ATOM NUMBER   1 HAS RADIAL NORMALIZATION=  0.999999
 DFT IS SWITCHED OFF, PERFORMING PURE SCF UNTIL SWOFF THRESHOLD IS REACHED.

 ITER EX      TOTAL ENERGY        E CHANGE  DENSITY CHANGE    DIIS ERROR
   1  0     -918.0812414702  -918.0812414702   0.398673616   4.326654392
          * * *   INITIATING DIIS PROCEDURE   * * *
   2  1     -918.8410548245    -0.7598133543   0.098173977   0.117913146
   3  2     -918.8524473393    -0.0113925148   0.038492816   0.025651895
   4  3     -918.8539623606    -0.0015150213   0.029478219   0.012240782
   5  4     -918.8542895369    -0.0003271763   0.015119143   0.004219226
   6  5     -918.8543499174    -0.0000603805   0.002602987   0.000691825
 CONVERGED TO SWOFF, SO DFT CALCULATION IS NOW SWITCHED ON.
          * * *   INITIATING DIIS PROCEDURE   * * *
   7  6     -920.1498739488    -1.2955240315   0.069329569   0.253977613
   8  7     -920.1679120312    -0.0180380823   0.054786593   0.013301814
   9  8     -920.1682108853    -0.0002988542   0.023374862   0.009004562
  10  9     -920.1684877769    -0.0002768915   0.003288351   0.001322599
  11 10     -920.1684922712    -0.0000044944   0.000270034   0.000347372
 DFT CODE IS SWITCHING BACK TO THE FINE GRID
          * * *   INITIATING DIIS PROCEDURE   * * *
  12 11     -920.1738912410    -0.0053989697   0.004572317   0.006503912
  13 12     -920.1739001554    -0.0000089145   0.001355785   0.000407788
  14 13     -920.1739004317    -0.0000002763   0.001085033   0.000391739
  15 14     -920.1739009627    -0.0000005310   0.000136654   0.000021196
  16 15     -920.1739009660    -0.0000000033   0.000018710   0.000005324
  17 16     -920.1739009661    -0.0000000001   0.000006585   0.000004665
  18 17     -920.1739009662    -0.0000000000   0.000002865   0.000003338

          -----------------
          DENSITY CONVERGED
          -----------------
     TIME TO FORM FOCK OPERATORS=       2.7 SECONDS (       0.1 SEC/ITER)
     TIME TO SOLVE SCF EQUATIONS=       0.1 SECONDS (       0.0 SEC/ITER)

 FINAL U-B3LYP ENERGY IS     -920.1739009662 AFTER  18 ITERATIONS
 DFT EXCHANGE + CORRELATION ENERGY =       -45.3544544825
 TOTAL ELECTRON NUMBER             =        33.9999998763

          --------------------
          SPIN SZ   =    1.000
          S-SQUARED =    2.004
          --------------------

 LZ VALUE ANALYSIS FOR THE MOS
 ----------------------------------------
 MO     1 (    1) HAS LZ(WEIGHT)= 0.00(100.0%) 
 MO     2 (    2) HAS LZ(WEIGHT)= 0.00(100.0%) 
 MO     3 (    3) HAS LZ(WEIGHT)= 0.00(100.0%) 
 MO     4 (    4) HAS LZ(WEIGHT)= 0.00(100.0%) 
 MO     5 (    5) HAS LZ(WEIGHT)= 0.00(100.0%) 
 MO     6 (    6) HAS LZ(WEIGHT)= 0.00(100.0%) 
 MO     7 (    7) HAS LZ(WEIGHT)=-0.00( 50.0%)  0.00( 50.0%) 
 MO     8 (    7) HAS LZ(WEIGHT)=-0.00( 50.0%)  0.00( 50.0%) 
 MO     9 (    8) HAS LZ(WEIGHT)=-0.00( 50.0%)  0.00( 50.0%) 
 MO    10 (    8) HAS LZ(WEIGHT)=-0.00( 50.0%)  0.00( 50.0%) 
 MO    11 (    9) HAS LZ(WEIGHT)= 0.00(100.0%) 
 MO    12 (   10) HAS LZ(WEIGHT)= 0.00(100.0%) 
 MO    13 (   11) HAS LZ(WEIGHT)= 0.00(100.0%) 
 MO    14 (   12) HAS LZ(WEIGHT)= 0.00(100.0%) 
 MO    15 (   13) HAS LZ(WEIGHT)= 0.00(100.0%) 
 MO    16 (   14) HAS LZ(WEIGHT)= 0.00(100.0%) 
 MO    17 (   15) HAS LZ(WEIGHT)= 0.00(100.0%) 
 MO    18 (   16) HAS LZ(WEIGHT)= 0.00(100.0%) 
 MO    19 (   17) HAS LZ(WEIGHT)= 0.00(100.0%) 
 MO    20 (   18) HAS LZ(WEIGHT)= 0.00(100.0%) 
 MO    21 (   19) HAS LZ(WEIGHT)= 0.00(100.0%) 
 MO    22 (   20) HAS LZ(WEIGHT)= 0.00(100.0%) 
 MO    23 (   21) HAS LZ(WEIGHT)= 0.00(100.0%) 
 MO    24 (   22) HAS LZ(WEIGHT)= 0.00(100.0%) 
 MO    25 (   23) HAS LZ(WEIGHT)= 0.00(100.0%) 
 MO    26 (   24) HAS LZ(WEIGHT)= 0.00(100.0%) 
 MO    27 (   25) HAS LZ(WEIGHT)= 0.00(100.0%) 
 MO    28 (   26) HAS LZ(WEIGHT)= 0.00(100.0%) 
 MO    29 (   27) HAS LZ(WEIGHT)= 0.00(100.0%) 
 MO    30 (   28) HAS LZ(WEIGHT)= 0.00(100.0%) 
 MO    31 (   29) HAS LZ(WEIGHT)= 0.00(100.0%) 
 MO    32 (   30) HAS LZ(WEIGHT)= 0.00(100.0%) 
 MO    33 (   31) HAS LZ(WEIGHT)= 0.00(100.0%) 
 MO    34 (   32) HAS LZ(WEIGHT)= 0.00(100.0%) 
 MO    35 (   33) HAS LZ(WEIGHT)= 0.00(100.0%) 
 MO    36 (   34) HAS LZ(WEIGHT)= 0.00(100.0%) 
 MO    37 (   35) HAS LZ(WEIGHT)= 0.00(100.0%) 
 MO    38 (   36) HAS LZ(WEIGHT)= 0.00(100.0%) 
 MO    39 (   37) HAS LZ(WEIGHT)= 0.00(100.0%) 
 MO    40 (   38) HAS LZ(WEIGHT)= 0.00(100.0%) 
 MO    41 (   39) HAS LZ(WEIGHT)= 0.00(100.0%) 
 MO    42 (   40) HAS LZ(WEIGHT)= 0.00(100.0%) 
 MO    43 (   41) HAS LZ(WEIGHT)= 0.00(100.0%) 
 MO    44 (   42) HAS LZ(WEIGHT)= 0.00(100.0%) 
 MO    45 (   43) HAS LZ(WEIGHT)= 0.00(100.0%) 
 MO    46 (   44) HAS LZ(WEIGHT)= 0.00(100.0%) 
 MO    47 (   45) HAS LZ(WEIGHT)= 0.00(100.0%) 
 MO    48 (   46) HAS LZ(WEIGHT)= 0.00(100.0%) 
 MO    49 (   47) HAS LZ(WEIGHT)= 0.00(100.0%) 
 MO    50 (   48) HAS LZ(WEIGHT)= 0.00(100.0%) 
 MO    51 (   49) HAS LZ(WEIGHT)= 0.00(100.0%) 
 MO    52 (   50) HAS LZ(WEIGHT)= 0.00(100.0%) 
 MO    53 (   51) HAS LZ(WEIGHT)= 0.00(100.0%) 
 MO    54 (   52) HAS LZ(WEIGHT)= 0.00(100.0%) 
 MO    55 (   53) HAS LZ(WEIGHT)= 0.00(100.0%) 
 MO    56 (   54) HAS LZ(WEIGHT)= 0.00(100.0%) 
 MO    57 (   55) HAS LZ(WEIGHT)= 0.00(100.0%) 
 MO    58 (   56) HAS LZ(WEIGHT)= 0.00(100.0%) 
 MO    59 (   57) HAS LZ(WEIGHT)= 0.00(100.0%) 
 MO    60 (   58) HAS LZ(WEIGHT)= 0.00(100.0%) 
 MO    61 (   59) HAS LZ(WEIGHT)= 0.00(100.0%) 
 MO    62 (   60) HAS LZ(WEIGHT)= 0.00(100.0%) 

  ----- ALPHA SET ----- 

          ------------
          EIGENVECTORS
          ------------

                      1          2          3          4          5
                 -101.6026  -101.6026    -9.5173    -9.5173    -7.2813
                     A          A          A          A          A   
    1  CL 1  S   -0.236870   0.336639  -0.085439  -0.086790  -0.000339
    2  CL 1  S   -0.376287   0.534786  -0.229743  -0.233356  -0.000908
    3  CL 1  S   -0.009347   0.013242   0.352985   0.358369   0.001267
    4  CL 1  S    0.004199  -0.005832   0.415436   0.422738   0.002238
    5  CL 1  S   -0.003411   0.004693   0.058989   0.059108  -0.000733
    6  CL 1  S   -0.000567   0.000482  -0.005159  -0.007769   0.000006
    7  CL 1  X   -0.000000  -0.000000   0.000000  -0.000000   0.000000
    8  CL 1  Y   -0.000000  -0.000000   0.000000  -0.000000   0.000000
    9  CL 1  Z   -0.000004   0.000040   0.003105   0.003340  -0.871960
   10  CL 1  X   -0.000000  -0.000000   0.000000  -0.000000   0.000000
   11  CL 1  Y   -0.000000  -0.000000   0.000000  -0.000000   0.000000
   12  CL 1  Z    0.000005   0.000021   0.000787   0.000935  -0.235695
   13  CL 1  S    0.000681  -0.000203   0.000942   0.007660   0.000011
   14  CL 1  X   -0.000000  -0.000000   0.000000  -0.000000   0.000000
   15  CL 1  Y   -0.000000  -0.000000   0.000000  -0.000000   0.000000
   16  CL 1  Z    0.000305  -0.000069   0.000181   0.003331  -0.000092
   17  CL 1  X   -0.000000  -0.000000   0.000000  -0.000000   0.000000
   18  CL 1  Y   -0.000000  -0.000000   0.000000  -0.000000   0.000000
   19  CL 1  Z   -0.000023  -0.000031   0.000580   0.000120  -0.037498
   20  CL 1  X   -0.000000  -0.000000   0.000000  -0.000000   0.000000
   21  CL 1  Y   -0.000000  -0.000000   0.000000  -0.000000   0.000000
   22  CL 1  Z    0.000027   0.000010  -0.000121   0.000327   0.000541
   23  CL 1  X   -0.000000  -0.000000   0.000000  -0.000000   0.000000
   24  CL 1  Y   -0.000000  -0.000000   0.000000  -0.000000   0.000000
   25  CL 1  Z   -0.000168   0.000025   0.000038  -0.001754   0.000045
   26  CL 1 XX    0.001132  -0.001511  -0.008530  -0.008066   0.000322
   27  CL 1 YY    0.001132  -0.001511  -0.008982  -0.008529   0.000300
   28  CL 1 ZZ    0.001130  -0.001501  -0.008557  -0.007971  -0.000163
   29  CL 1 XY   -0.000000   0.000000   0.000036   0.000036   0.000002
   30  CL 1 XZ   -0.000000  -0.000000   0.000000  -0.000000   0.000000
   31  CL 1 YZ   -0.000000  -0.000000   0.000000  -0.000000   0.000000
   32  CL 2  S    0.336640   0.236869  -0.086789   0.085440  -0.000339
   33  CL 2  S    0.534782   0.376293  -0.233372   0.229727  -0.000908
   34  CL 2  S    0.013270   0.009307   0.358559  -0.352791   0.001268
   35  CL 2  S   -0.005921  -0.004071   0.422010  -0.416177   0.002239
   36  CL 2  S    0.004796   0.003265   0.059910  -0.058173  -0.000734
   37  CL 2  S    0.000696   0.000262  -0.005279   0.007688   0.000006
   38  CL 2  X   -0.000000  -0.000000   0.000000  -0.000000  -0.000000
   39  CL 2  Y   -0.000000  -0.000000   0.000000  -0.000000   0.000000
   40  CL 2  Z   -0.000017  -0.000037  -0.003157   0.003291   0.872276
   41  CL 2  X   -0.000000  -0.000000   0.000000  -0.000000   0.000000
   42  CL 2  Y   -0.000000  -0.000000   0.000000  -0.000000   0.000000
   43  CL 2  Z   -0.000003  -0.000021  -0.000802   0.000923   0.235780
   44  CL 2  S   -0.000709   0.000039   0.001064  -0.007644   0.000008
   45  CL 2  X   -0.000000  -0.000000   0.000000  -0.000000   0.000000
   46  CL 2  Y   -0.000000  -0.000000   0.000000  -0.000000   0.000000
   47  CL 2  Z    0.000310  -0.000038  -0.000234   0.003328   0.000093
   48  CL 2  X   -0.000000  -0.000000   0.000000  -0.000000   0.000000
   49  CL 2  Y   -0.000000  -0.000000   0.000000  -0.000000   0.000000
   50  CL 2  Z   -0.000012   0.000037  -0.000582   0.000111   0.037511
   51  CL 2  X   -0.000000  -0.000000   0.000000  -0.000000   0.000000
   52  CL 2  Y   -0.000000  -0.000000   0.000000  -0.000000   0.000000
   53  CL 2  Z    0.000022  -0.000019   0.000115   0.000328  -0.000541
   54  CL 2  X   -0.000000  -0.000000   0.000000  -0.000000   0.000000
   55  CL 2  Y   -0.000000  -0.000000   0.000000  -0.000000   0.000000
   56  CL 2  Z   -0.000167   0.000033  -0.000010  -0.001754  -0.000045
   57  CL 2 XX   -0.001576  -0.001040  -0.008656   0.007930   0.000323
   58  CL 2 YY   -0.001576  -0.001040  -0.009116   0.008386   0.000300
   59  CL 2 ZZ   -0.001571  -0.001031  -0.008682   0.007835  -0.000163
   60  CL 2 XY    0.000000   0.000000   0.000036  -0.000036   0.000002
   61  CL 2 XZ   -0.000000  -0.000000   0.000000  -0.000000   0.000000
   62  CL 2 YZ   -0.000000  -0.000000   0.000000  -0.000000   0.000000

                      6          7          8          9         10
                   -7.2812    -7.2811    -7.2811    -7.2680    -7.2680
                     A          A          A          A          A   
    1  CL 1  S    0.000332  -0.000000  -0.000000   0.000000   0.000000
    2  CL 1  S    0.000897  -0.000000  -0.000000   0.000000   0.000000
    3  CL 1  S   -0.001317  -0.000000  -0.000000   0.000000   0.000000
    4  CL 1  S   -0.001939  -0.000000  -0.000000   0.000000   0.000000
    5  CL 1  S    0.000156  -0.000000  -0.000000   0.000000   0.000000
    6  CL 1  S    0.000287  -0.000000  -0.000000   0.000000   0.000000
    7  CL 1  X    0.000000   0.581615   1.084651  -0.053972  -0.063592
    8  CL 1  Y    0.000000   0.039405   0.073486   0.796630   0.938626
    9  CL 1  Z    0.872536  -0.000000  -0.000000   0.000000   0.000000
   10  CL 1  X    0.000000   0.157223   0.293219  -0.014587  -0.017187
   11  CL 1  Y    0.000000   0.010652   0.019866   0.215300   0.253686
   12  CL 1  Z    0.235933  -0.000000  -0.000000   0.000000   0.000000
   13  CL 1  S   -0.000351  -0.000000  -0.000000   0.000000   0.000000
   14  CL 1  X    0.000000   0.000033   0.000139  -0.000005  -0.000012
   15  CL 1  Y    0.000000   0.000002   0.000009   0.000080   0.000172
   16  CL 1  Z   -0.000052  -0.000000  -0.000000   0.000000   0.000000
   17  CL 1  X    0.000000   0.024898   0.046379  -0.002277  -0.002680
   18  CL 1  Y    0.000000   0.001687   0.003142   0.033606   0.039557
   19  CL 1  Z    0.037076  -0.000000  -0.000000   0.000000   0.000000
   20  CL 1  X    0.000000  -0.000326  -0.000592   0.000023   0.000026
   21  CL 1  Y    0.000000  -0.000022  -0.000040  -0.000341  -0.000390
   22  CL 1  Z   -0.000106  -0.000000  -0.000000   0.000000   0.000000
   23  CL 1  X    0.000000  -0.000052  -0.000119   0.000008   0.000012
   24  CL 1  Y    0.000000  -0.000004  -0.000008  -0.000124  -0.000177
   25  CL 1  Z   -0.000125  -0.000000  -0.000000   0.000000   0.000000
   26  CL 1 XX   -0.000282  -0.000000  -0.000000   0.000000   0.000000
   27  CL 1 YY   -0.000259  -0.000000  -0.000000   0.000000   0.000000
   28  CL 1 ZZ    0.000389  -0.000000  -0.000000   0.000000   0.000000
   29  CL 1 XY   -0.000002  -0.000000  -0.000000   0.000000   0.000000
   30  CL 1 XZ    0.000000   0.000186   0.000339  -0.000018  -0.000021
   31  CL 1 YZ    0.000000   0.000013   0.000023   0.000272   0.000315
   32  CL 2  S   -0.000332  -0.000000  -0.000000   0.000000   0.000000
   33  CL 2  S   -0.000897  -0.000000  -0.000000   0.000000   0.000000
   34  CL 2  S    0.001317  -0.000000  -0.000000   0.000000   0.000000
   35  CL 2  S    0.001938  -0.000000  -0.000000   0.000000   0.000000
   36  CL 2  S   -0.000156  -0.000000  -0.000000   0.000000   0.000000
   37  CL 2  S   -0.000287  -0.000000  -0.000000   0.000000   0.000000
   38  CL 2  X    0.000000   1.084633  -0.581648  -0.063591   0.053974
   39  CL 2  Y    0.000000   0.073485  -0.039407   0.938602  -0.796659
   40  CL 2  Z    0.872220  -0.000000  -0.000000   0.000000   0.000000
   41  CL 2  X    0.000000   0.293208  -0.157244  -0.017186   0.014588
   42  CL 2  Y    0.000000   0.019865  -0.010653   0.253671  -0.215317
   43  CL 2  Z    0.235847  -0.000000  -0.000000   0.000000   0.000000
   44  CL 2  S    0.000351  -0.000000  -0.000000   0.000000   0.000000
   45  CL 2  X    0.000000   0.000104  -0.000097  -0.000007   0.000011
   46  CL 2  Y    0.000000   0.000007  -0.000007   0.000107  -0.000157
   47  CL 2  Z   -0.000052  -0.000000  -0.000000   0.000000   0.000000
   48  CL 2  X    0.000000   0.046402  -0.024855  -0.002682   0.002274
   49  CL 2  Y    0.000000   0.003144  -0.001684   0.039588  -0.033569
   50  CL 2  Z    0.037063  -0.000000  -0.000000   0.000000   0.000000
   51  CL 2  X    0.000000  -0.000599   0.000313   0.000027  -0.000022
   52  CL 2  Y    0.000000  -0.000041   0.000021  -0.000400   0.000330
   53  CL 2  Z   -0.000106  -0.000000  -0.000000   0.000000   0.000000
   54  CL 2  X    0.000000  -0.000109   0.000070   0.000010  -0.000010
   55  CL 2  Y    0.000000  -0.000007   0.000005  -0.000151   0.000155
   56  CL 2  Z   -0.000125  -0.000000  -0.000000   0.000000   0.000000
   57  CL 2 XX    0.000282  -0.000000  -0.000000   0.000000   0.000000
   58  CL 2 YY    0.000259  -0.000000  -0.000000   0.000000   0.000000
   59  CL 2 ZZ   -0.000389  -0.000000  -0.000000   0.000000   0.000000
   60  CL 2 XY    0.000002  -0.000000  -0.000000   0.000000   0.000000
   61  CL 2 XZ    0.000000  -0.000343   0.000179   0.000022  -0.000018
   62  CL 2 YZ    0.000000  -0.000023   0.000012  -0.000320   0.000267

                     11         12         13         14         15
                   -0.9631    -0.8012    -0.5007    -0.4498    -0.4207
                     A          A          A          A          A   
    1  CL 1  S    0.025745  -0.028324  -0.007777  -0.000000  -0.000000
    2  CL 1  S    0.073988  -0.081358  -0.022286  -0.000000  -0.000000
    3  CL 1  S   -0.152866   0.167543   0.045279  -0.000000  -0.000000
    4  CL 1  S   -0.258520   0.297368   0.089903  -0.000000  -0.000000
    5  CL 1  S    0.401557  -0.467379  -0.139416  -0.000000  -0.000000
    6  CL 1  S    0.316904  -0.434787  -0.169787  -0.000000  -0.000000
    7  CL 1  X   -0.000000   0.000000   0.000000  -0.245535   0.016429
    8  CL 1  Y   -0.000000   0.000000   0.000000  -0.016635  -0.242488
    9  CL 1  Z   -0.064659  -0.032643  -0.250221  -0.000000  -0.000000
   10  CL 1  X   -0.000000   0.000000   0.000000  -0.060497   0.004033
   11  CL 1  Y   -0.000000   0.000000   0.000000  -0.004099  -0.059521
   12  CL 1  Z   -0.016487  -0.008261  -0.062135  -0.000000  -0.000000
   13  CL 1  S   -0.008946   0.059159  -0.022152  -0.000000  -0.000000
   14  CL 1  X   -0.000000   0.000000   0.000000  -0.026711   0.001730
   15  CL 1  Y   -0.000000   0.000000   0.000000  -0.001810  -0.025535
   16  CL 1  Z   -0.002239   0.031804  -0.026052  -0.000000  -0.000000
   17  CL 1  X   -0.000000   0.000000   0.000000   0.180946  -0.012131
   18  CL 1  Y   -0.000000   0.000000   0.000000   0.012259   0.179056
   19  CL 1  Z    0.042459   0.022016   0.183575  -0.000000  -0.000000
   20  CL 1  X   -0.000000   0.000000   0.000000   0.405007  -0.026926
   21  CL 1  Y   -0.000000   0.000000   0.000000   0.027440   0.397432
   22  CL 1  Z    0.098549   0.038627   0.407667  -0.000000  -0.000000
   23  CL 1  X   -0.000000   0.000000   0.000000   0.207927  -0.014654
   24  CL 1  Y   -0.000000   0.000000   0.000000   0.014087   0.216291
   25  CL 1  Z    0.004280  -0.009758   0.150517  -0.000000  -0.000000
   26  CL 1 XX    0.011680  -0.022452  -0.016138  -0.000000  -0.000000
   27  CL 1 YY   -0.002384  -0.004892  -0.008651  -0.000000  -0.000000
   28  CL 1 ZZ    0.049395  -0.002324   0.044236  -0.000000  -0.000000
   29  CL 1 XY    0.001105  -0.001380  -0.000588  -0.000000  -0.000000
   30  CL 1 XZ   -0.000000   0.000000   0.000000   0.035353  -0.002488
   31  CL 1 YZ   -0.000000   0.000000   0.000000   0.002395   0.036718
   32  CL 2  S    0.025745   0.028323  -0.007777  -0.000000  -0.000000
   33  CL 2  S    0.073988   0.081357  -0.022286  -0.000000  -0.000000
   34  CL 2  S   -0.152867  -0.167541   0.045278  -0.000000  -0.000000
   35  CL 2  S   -0.258523  -0.297371   0.089910  -0.000000  -0.000000
   36  CL 2  S    0.401563   0.467383  -0.139417  -0.000000  -0.000000
   37  CL 2  S    0.316898   0.434791  -0.169838  -0.000000  -0.000000
   38  CL 2  X   -0.000000   0.000000   0.000000  -0.245534   0.016429
   39  CL 2  Y   -0.000000   0.000000   0.000000  -0.016635  -0.242488
   40  CL 2  Z    0.064659  -0.032644   0.250221  -0.000000  -0.000000
   41  CL 2  X   -0.000000   0.000000   0.000000  -0.060497   0.004033
   42  CL 2  Y   -0.000000   0.000000   0.000000  -0.004099  -0.059521
   43  CL 2  Z    0.016488  -0.008261   0.062135  -0.000000  -0.000000
   44  CL 2  S   -0.008827  -0.059162  -0.021793  -0.000000  -0.000000
   45  CL 2  X   -0.000000   0.000000   0.000000  -0.026709   0.001730
   46  CL 2  Y   -0.000000   0.000000   0.000000  -0.001809  -0.025532
   47  CL 2  Z    0.002187   0.031805   0.025891  -0.000000  -0.000000
   48  CL 2  X   -0.000000   0.000000   0.000000   0.180946  -0.012131
   49  CL 2  Y   -0.000000   0.000000   0.000000   0.012259   0.179056
   50  CL 2  Z   -0.042460   0.022016  -0.183575  -0.000000  -0.000000
   51  CL 2  X   -0.000000   0.000000   0.000000   0.405007  -0.026926
   52  CL 2  Y   -0.000000   0.000000   0.000000   0.027440   0.397433
   53  CL 2  Z   -0.098548   0.038627  -0.407665  -0.000000  -0.000000
   54  CL 2  X   -0.000000   0.000000   0.000000   0.207926  -0.014654
   55  CL 2  Y   -0.000000   0.000000   0.000000   0.014087   0.216290
   56  CL 2  Z   -0.004284  -0.009758  -0.150509  -0.000000  -0.000000
   57  CL 2 XX    0.011680   0.022449  -0.016130  -0.000000  -0.000000
   58  CL 2 YY   -0.002385   0.004889  -0.008643  -0.000000  -0.000000
   59  CL 2 ZZ    0.049395   0.002320   0.044243  -0.000000  -0.000000
   60  CL 2 XY    0.001105   0.001380  -0.000588  -0.000000  -0.000000
   61  CL 2 XZ   -0.000000   0.000000   0.000000  -0.035353   0.002488
   62  CL 2 YZ   -0.000000   0.000000   0.000000  -0.002395  -0.036718

                     16         17         18         19         20
                   -0.3508    -0.3194    -0.2064     0.0165     0.0501
                     A          A          A          A          A   
    1  CL 1  S   -0.000000   0.000000   0.008413  -0.008258   0.003220
    2  CL 1  S   -0.000000   0.000000   0.024155  -0.023553   0.009410
    3  CL 1  S   -0.000000   0.000000  -0.049525   0.046644  -0.020952
    4  CL 1  S   -0.000000   0.000000  -0.101196   0.110962  -0.030433
    5  CL 1  S   -0.000000   0.000000   0.156046  -0.161632   0.084420
    6  CL 1  S   -0.000000   0.000000   0.358284  -0.631544  -0.004673
    7  CL 1  X    0.266949  -0.017900   0.000000   0.000000   0.000000
    8  CL 1  Y    0.018086   0.264205   0.000000   0.000000   0.000000
    9  CL 1  Z   -0.000000   0.000000  -0.266275  -0.026932   0.089128
   10  CL 1  X    0.065855  -0.004402   0.000000   0.000000   0.000000
   11  CL 1  Y    0.004462   0.064979   0.000000   0.000000   0.000000
   12  CL 1  Z   -0.000000   0.000000  -0.064698  -0.007302   0.022993
   13  CL 1  S   -0.000000   0.000000   0.469396   0.868373   1.243803
   14  CL 1  X    0.041569  -0.002412   0.000000   0.000000   0.000000
   15  CL 1  Y    0.002816   0.035589   0.000000   0.000000   0.000000
   16  CL 1  Z   -0.000000   0.000000   0.163677  -0.179276   1.582989
   17  CL 1  X   -0.204515   0.013771   0.000000   0.000000   0.000000
   18  CL 1  Y   -0.013856  -0.203250   0.000000   0.000000   0.000000
   19  CL 1  Z   -0.000000   0.000000   0.205253   0.029631  -0.084032
   20  CL 1  X   -0.443076   0.029470   0.000000   0.000000   0.000000
   21  CL 1  Y   -0.030019  -0.434974   0.000000   0.000000   0.000000
   22  CL 1  Z   -0.000000   0.000000   0.490076   0.003269  -0.122897
   23  CL 1  X   -0.292378   0.020703   0.000000   0.000000   0.000000
   24  CL 1  Y   -0.019809  -0.305564   0.000000   0.000000   0.000000
   25  CL 1  Z   -0.000000   0.000000   0.508484   0.138422  -0.634640
   26  CL 1 XX   -0.000000   0.000000   0.025503   0.038645   0.001790
   27  CL 1 YY   -0.000000   0.000000   0.017522   0.042061   0.000829
   28  CL 1 ZZ   -0.000000   0.000000  -0.065548  -0.018091   0.028507
   29  CL 1 XY   -0.000000   0.000000   0.000627  -0.000269   0.000076
   30  CL 1 XZ    0.012389  -0.000818   0.000000   0.000000   0.000000
   31  CL 1 YZ    0.000839   0.012077   0.000000   0.000000   0.000000
   32  CL 2  S   -0.000000   0.000000  -0.008413  -0.008258  -0.003221
   33  CL 2  S   -0.000000   0.000000  -0.024155  -0.023553  -0.009411
   34  CL 2  S   -0.000000   0.000000   0.049528   0.046642   0.020959
   35  CL 2  S   -0.000000   0.000000   0.101181   0.110981   0.030416
   36  CL 2  S   -0.000000   0.000000  -0.156022  -0.161637  -0.084400
   37  CL 2  S   -0.000000   0.000000  -0.358270  -0.631704   0.004685
   38  CL 2  X   -0.266950   0.017900   0.000000   0.000000   0.000000
   39  CL 2  Y   -0.018086  -0.264205   0.000000   0.000000   0.000000
   40  CL 2  Z   -0.000000   0.000000  -0.266275   0.026926   0.089134
   41  CL 2  X   -0.065855   0.004402   0.000000   0.000000   0.000000
   42  CL 2  Y   -0.004462  -0.064979   0.000000   0.000000   0.000000
   43  CL 2  Z   -0.000000   0.000000  -0.064698   0.007300   0.022994
   44  CL 2  S   -0.000000   0.000000  -0.469398   0.869789  -1.243745
   45  CL 2  X   -0.041569   0.002412   0.000000   0.000000   0.000000
   46  CL 2  Y   -0.002816  -0.035589   0.000000   0.000000   0.000000
   47  CL 2  Z   -0.000000   0.000000   0.163700   0.178611   1.583133
   48  CL 2  X    0.204515  -0.013771   0.000000   0.000000   0.000000
   49  CL 2  Y    0.013856   0.203250   0.000000   0.000000   0.000000
   50  CL 2  Z   -0.000000   0.000000   0.205252  -0.029627  -0.084040
   51  CL 2  X    0.443077  -0.029470   0.000000   0.000000   0.000000
   52  CL 2  Y    0.030019   0.434974   0.000000   0.000000   0.000000
   53  CL 2  Z   -0.000000   0.000000   0.490080  -0.003255  -0.122890
   54  CL 2  X    0.292378  -0.020703   0.000000   0.000000   0.000000
   55  CL 2  Y    0.019809   0.305564   0.000000   0.000000   0.000000
   56  CL 2  Z   -0.000000   0.000000   0.508469  -0.138386  -0.634707
   57  CL 2 XX   -0.000000   0.000000  -0.025513   0.038665  -0.001809
   58  CL 2 YY   -0.000000   0.000000  -0.017532   0.042082  -0.000847
   59  CL 2 ZZ   -0.000000   0.000000   0.065534  -0.018073  -0.028531
   60  CL 2 XY   -0.000000   0.000000  -0.000627  -0.000269  -0.000076
   61  CL 2 XZ    0.012388  -0.000818   0.000000   0.000000   0.000000
   62  CL 2 YZ    0.000839   0.012077   0.000000   0.000000   0.000000

                     21         22         23         24         25
                    0.0577     0.0624     0.0765     0.0973     0.1007
                     A          A          A          A          A   
    1  CL 1  S   -0.000000  -0.000000   0.000798   0.000000  -0.000000
    2  CL 1  S   -0.000000  -0.000000   0.002231   0.000000  -0.000000
    3  CL 1  S   -0.000000  -0.000000  -0.003969   0.000000  -0.000000
    4  CL 1  S   -0.000000  -0.000000  -0.013195   0.000000  -0.000000
    5  CL 1  S   -0.000000  -0.000000   0.001526   0.000000  -0.000000
    6  CL 1  S   -0.000000  -0.000000   0.239548   0.000000  -0.000000
    7  CL 1  X    0.077862  -0.005312   0.000000  -0.072120   0.005087
    8  CL 1  Y    0.005322   0.077691   0.000000  -0.005019  -0.073122
    9  CL 1  Z   -0.000000  -0.000000  -0.047637   0.000000  -0.000000
   10  CL 1  X    0.020530  -0.001402   0.000000  -0.019215   0.001355
   11  CL 1  Y    0.001403   0.020505   0.000000  -0.001337  -0.019475
   12  CL 1  Z   -0.000000  -0.000000  -0.012677   0.000000  -0.000000
   13  CL 1  S   -0.000000  -0.000000   0.148863   0.000000  -0.000000
   14  CL 1  X    0.801757  -0.055503   0.000000  -1.727706   0.121453
   15  CL 1  Y    0.054817   0.812004   0.000000  -0.120267  -1.746341
   16  CL 1  Z   -0.000000  -0.000000  -1.219818   0.000000  -0.000000
   17  CL 1  X   -0.077263   0.005288   0.000000   0.074181  -0.005231
   18  CL 1  Y   -0.005282  -0.077351   0.000000   0.005164   0.075215
   19  CL 1  Z   -0.000000  -0.000000   0.045329   0.000000  -0.000000
   20  CL 1  X   -0.093929   0.006049   0.000000   0.079218  -0.005315
   21  CL 1  Y   -0.006413  -0.088361   0.000000   0.005497   0.076162
   22  CL 1  Z   -0.000000  -0.000000   0.078465   0.000000  -0.000000
   23  CL 1  X   -0.398322   0.028599   0.000000   0.462241  -0.033942
   24  CL 1  Y   -0.027249  -0.418647   0.000000   0.032237   0.488914
   25  CL 1  Z   -0.000000  -0.000000   0.266082   0.000000  -0.000000
   26  CL 1 XX   -0.000000  -0.000000  -0.050147   0.000000  -0.000000
   27  CL 1 YY   -0.000000  -0.000000  -0.045484   0.000000  -0.000000
   28  CL 1 ZZ   -0.000000  -0.000000   0.078509   0.000000  -0.000000
   29  CL 1 XY   -0.000000  -0.000000  -0.000366   0.000000  -0.000000
   30  CL 1 XZ   -0.018593   0.001306   0.000000   0.020964  -0.001359
   31  CL 1 YZ   -0.001271  -0.019111   0.000000   0.001455   0.019480
   32  CL 2  S   -0.000000  -0.000000   0.000799   0.000000  -0.000000
   33  CL 2  S   -0.000000  -0.000000   0.002233   0.000000  -0.000000
   34  CL 2  S   -0.000000  -0.000000  -0.003971   0.000000  -0.000000
   35  CL 2  S   -0.000000  -0.000000  -0.013221   0.000000  -0.000000
   36  CL 2  S   -0.000000  -0.000000   0.001554   0.000000  -0.000000
   37  CL 2  S   -0.000000  -0.000000   0.239686   0.000000  -0.000000
   38  CL 2  X    0.077861  -0.005312   0.000000   0.072121  -0.005088
   39  CL 2  Y    0.005322   0.077690   0.000000   0.005018   0.073123
   40  CL 2  Z   -0.000000  -0.000000   0.047632   0.000000  -0.000000
   41  CL 2  X    0.020529  -0.001402   0.000000   0.019215  -0.001355
   42  CL 2  Y    0.001403   0.020505   0.000000   0.001337   0.019475
   43  CL 2  Z   -0.000000  -0.000000   0.012676   0.000000  -0.000000
   44  CL 2  S   -0.000000  -0.000000   0.147719   0.000000  -0.000000
   45  CL 2  X    0.801740  -0.055492   0.000000   1.727715  -0.121455
   46  CL 2  Y    0.054820   0.811995   0.000000   0.120263   1.746346
   47  CL 2  Z   -0.000000  -0.000000   1.220223   0.000000  -0.000000
   48  CL 2  X   -0.077263   0.005287   0.000000  -0.074182   0.005231
   49  CL 2  Y   -0.005282  -0.077351   0.000000  -0.005163  -0.075216
   50  CL 2  Z   -0.000000  -0.000000  -0.045325   0.000000  -0.000000
   51  CL 2  X   -0.093928   0.006049   0.000000  -0.079219   0.005316
   52  CL 2  Y   -0.006413  -0.088360   0.000000  -0.005496  -0.076163
   53  CL 2  Z   -0.000000  -0.000000  -0.078460   0.000000  -0.000000
   54  CL 2  X   -0.398318   0.028596   0.000000  -0.462246   0.033943
   55  CL 2  Y   -0.027250  -0.418645   0.000000  -0.032235  -0.488917
   56  CL 2  Z   -0.000000  -0.000000  -0.266036   0.000000  -0.000000
   57  CL 2 XX   -0.000000  -0.000000  -0.050164   0.000000  -0.000000
   58  CL 2 YY   -0.000000  -0.000000  -0.045502   0.000000  -0.000000
   59  CL 2 ZZ   -0.000000  -0.000000   0.078495   0.000000  -0.000000
   60  CL 2 XY   -0.000000  -0.000000  -0.000366   0.000000  -0.000000
   61  CL 2 XZ    0.018592  -0.001306   0.000000   0.020964  -0.001359
   62  CL 2 YZ    0.001271   0.019110   0.000000   0.001455   0.019480

                     26         27         28         29         30
                    0.1617     0.3776     0.3960     0.4132     0.4280
                     A          A          A          A          A   
    1  CL 1  S   -0.006101  -0.003846   0.003525   0.000000  -0.000000
    2  CL 1  S   -0.017283  -0.010775   0.009777   0.000000  -0.000000
    3  CL 1  S    0.032957   0.019186  -0.016423   0.000000  -0.000000
    4  CL 1  S    0.091545   0.067992  -0.066919   0.000000  -0.000000
    5  CL 1  S   -0.113018  -0.131330   0.030123   0.000000  -0.000000
    6  CL 1  S   -0.707755   0.184788   0.898045   0.000000  -0.000000
    7  CL 1  X   -0.000000  -0.000000  -0.000000   0.162925  -0.011110
    8  CL 1  Y   -0.000000  -0.000000  -0.000000   0.011055   0.163724
    9  CL 1  Z    0.016011  -0.073248   0.162850   0.000000  -0.000000
   10  CL 1  X   -0.000000  -0.000000  -0.000000   0.031791  -0.002140
   11  CL 1  Y   -0.000000  -0.000000  -0.000000   0.002157   0.031531
   12  CL 1  Z    0.003404  -0.010351   0.033243   0.000000  -0.000000
   13  CL 1  S   10.293640  -0.195398  -0.327077   0.000000  -0.000000
   14  CL 1  X   -0.000000  -0.000000  -0.000000  -0.754876   0.050693
   15  CL 1  Y   -0.000000  -0.000000  -0.000000  -0.051215  -0.746877
   16  CL 1  Z    4.345139   1.221444  -1.218476   0.000000  -0.000000
   17  CL 1  X   -0.000000  -0.000000  -0.000000  -0.085360   0.005636
   18  CL 1  Y   -0.000000  -0.000000  -0.000000  -0.005792  -0.083045
   19  CL 1  Z   -0.010058  -0.012501  -0.098326   0.000000  -0.000000
   20  CL 1  X   -0.000000  -0.000000  -0.000000  -0.746962   0.051419
   21  CL 1  Y   -0.000000  -0.000000  -0.000000  -0.050686  -0.757750
   22  CL 1  Z   -0.053243   0.685926  -0.652219   0.000000  -0.000000
   23  CL 1  X   -0.000000  -0.000000  -0.000000   1.379240  -0.093490
   24  CL 1  Y   -0.000000  -0.000000  -0.000000   0.093584   1.377595
   25  CL 1  Z    0.276973  -1.507350   2.477632   0.000000  -0.000000
   26  CL 1 XX    0.046558  -0.115814  -0.020102   0.000000  -0.000000
   27  CL 1 YY    0.047917  -0.091285  -0.029033   0.000000  -0.000000
   28  CL 1 ZZ   -0.009073   0.298704  -0.062240   0.000000  -0.000000
   29  CL 1 XY   -0.000107  -0.001928   0.000702   0.000000  -0.000000
   30  CL 1 XZ   -0.000000  -0.000000  -0.000000   0.063957  -0.003720
   31  CL 1 YZ   -0.000000  -0.000000  -0.000000   0.004338   0.054798
   32  CL 2  S    0.006100  -0.003845  -0.003523   0.000000  -0.000000
   33  CL 2  S    0.017277  -0.010773  -0.009774   0.000000  -0.000000
   34  CL 2  S   -0.032912   0.019180   0.016421   0.000000  -0.000000
   35  CL 2  S   -0.091695   0.067990   0.066882   0.000000  -0.000000
   36  CL 2  S    0.113205  -0.131286  -0.030055   0.000000  -0.000000
   37  CL 2  S    0.707893   0.184628  -0.898071   0.000000  -0.000000
   38  CL 2  X   -0.000000  -0.000000  -0.000000   0.162925  -0.011108
   39  CL 2  Y   -0.000000  -0.000000  -0.000000   0.011056   0.163725
   40  CL 2  Z    0.016006   0.073286   0.162835   0.000000  -0.000000
   41  CL 2  X   -0.000000  -0.000000  -0.000000   0.031791  -0.002139
   42  CL 2  Y   -0.000000  -0.000000  -0.000000   0.002157   0.031531
   43  CL 2  Z    0.003402   0.010359   0.033241   0.000000  -0.000000
   44  CL 2  S  -10.293597  -0.196978   0.327111   0.000000  -0.000000
   45  CL 2  X   -0.000000  -0.000000  -0.000000  -0.754876   0.050676
   46  CL 2  Y   -0.000000  -0.000000  -0.000000  -0.051218  -0.746888
   47  CL 2  Z    4.345239  -1.220979  -1.218216   0.000000  -0.000000
   48  CL 2  X   -0.000000  -0.000000  -0.000000  -0.085360   0.005635
   49  CL 2  Y   -0.000000  -0.000000  -0.000000  -0.005792  -0.083046
   50  CL 2  Z   -0.010066   0.012475  -0.098327   0.000000  -0.000000
   51  CL 2  X   -0.000000  -0.000000  -0.000000  -0.746963   0.051410
   52  CL 2  Y   -0.000000  -0.000000  -0.000000  -0.050688  -0.757756
   53  CL 2  Z   -0.053133  -0.686067  -0.652086   0.000000  -0.000000
   54  CL 2  X   -0.000000  -0.000000  -0.000000   1.379241  -0.093467
   55  CL 2  Y   -0.000000  -0.000000  -0.000000   0.093587   1.377609
   56  CL 2  Z    0.276743   1.507932   2.477327   0.000000  -0.000000
   57  CL 2 XX   -0.046667  -0.115811   0.020117   0.000000  -0.000000
   58  CL 2 YY   -0.048029  -0.091280   0.029042   0.000000  -0.000000
   59  CL 2 ZZ    0.008837   0.298734   0.062153   0.000000  -0.000000
   60  CL 2 XY    0.000107  -0.001928  -0.000701   0.000000  -0.000000
   61  CL 2 XZ   -0.000000  -0.000000  -0.000000  -0.063957   0.003721
   62  CL 2 YZ   -0.000000  -0.000000  -0.000000  -0.004338  -0.054798

                     31         32         33         34         35
                    0.4412     0.4545     0.6719     0.6836     0.6958
                     A          A          A          A          A   
    1  CL 1  S    0.000000  -0.000000  -0.000000  -0.016691  -0.000000
    2  CL 1  S    0.000000  -0.000000  -0.000000  -0.052206  -0.000000
    3  CL 1  S    0.000000  -0.000000  -0.000000   0.151513  -0.000000
    4  CL 1  S    0.000000  -0.000000  -0.000000  -0.020974  -0.000000
    5  CL 1  S    0.000000  -0.000000  -0.000000  -0.721541  -0.000000
    6  CL 1  S    0.000000  -0.000000  -0.000000   1.914643  -0.000000
    7  CL 1  X   -0.146499  -0.010043   0.019543   0.000000   0.001509
    8  CL 1  Y   -0.009963   0.147720   0.001324   0.000000  -0.022272
    9  CL 1  Z    0.000000  -0.000000  -0.000000  -0.063984  -0.000000
   10  CL 1  X   -0.028193  -0.001910   0.007866   0.000000   0.000573
   11  CL 1  Y   -0.001917   0.028099   0.000533   0.000000  -0.008453
   12  CL 1  Z    0.000000  -0.000000  -0.000000  -0.014220  -0.000000
   13  CL 1  S    0.000000  -0.000000  -0.000000  -0.610399  -0.000000
   14  CL 1  X    1.530621   0.102863   0.162611   0.000000   0.010347
   15  CL 1  Y    0.104048  -1.512532   0.011016   0.000000  -0.152700
   16  CL 1  Z    0.000000  -0.000000  -0.000000   0.021306  -0.000000
   17  CL 1  X    0.073715   0.004906  -0.049026   0.000000  -0.003481
   18  CL 1  Y    0.005012  -0.072144  -0.003322   0.000000   0.051377
   19  CL 1  Z    0.000000  -0.000000  -0.000000   0.074633  -0.000000
   20  CL 1  X    0.716050   0.049372   0.109842   0.000000   0.006844
   21  CL 1  Y    0.048694  -0.726233   0.007441   0.000000  -0.100996
   22  CL 1  Z    0.000000  -0.000000  -0.000000   0.085978  -0.000000
   23  CL 1  X   -1.947943  -0.132251  -0.274337   0.000000  -0.017448
   24  CL 1  Y   -0.132446   1.945059  -0.018585   0.000000   0.257490
   25  CL 1  Z    0.000000  -0.000000  -0.000000  -0.290747  -0.000000
   26  CL 1 XX    0.000000  -0.000000  -0.000000  -0.145724  -0.000000
   27  CL 1 YY    0.000000  -0.000000  -0.000000  -0.181861  -0.000000
   28  CL 1 ZZ    0.000000  -0.000000  -0.000000  -0.689037  -0.000000
   29  CL 1 XY    0.000000  -0.000000  -0.000000   0.002840  -0.000000
   30  CL 1 XZ    0.107280   0.007063   0.686538   0.000000   0.046562
   31  CL 1 YZ    0.007292  -0.103862   0.046515   0.000000  -0.687224
   32  CL 2  S    0.000000  -0.000000  -0.000000  -0.016698  -0.000000
   33  CL 2  S    0.000000  -0.000000  -0.000000  -0.052230  -0.000000
   34  CL 2  S    0.000000  -0.000000  -0.000000   0.151581  -0.000000
   35  CL 2  S    0.000000  -0.000000  -0.000000  -0.020970  -0.000000
   36  CL 2  S    0.000000  -0.000000  -0.000000  -0.721949  -0.000000
   37  CL 2  S    0.000000  -0.000000  -0.000000   1.915742  -0.000000
   38  CL 2  X    0.146500   0.010043   0.019543   0.000000   0.001509
   39  CL 2  Y    0.009961  -0.147719   0.001324   0.000000  -0.022272
   40  CL 2  Z    0.000000  -0.000000  -0.000000   0.063961  -0.000000
   41  CL 2  X    0.028194   0.001910   0.007866   0.000000   0.000573
   42  CL 2  Y    0.001917  -0.028099   0.000533   0.000000  -0.008453
   43  CL 2  Z    0.000000  -0.000000  -0.000000   0.014211  -0.000000
   44  CL 2  S    0.000000  -0.000000  -0.000000  -0.611372  -0.000000
   45  CL 2  X   -1.530621  -0.102864   0.162612   0.000000   0.010347
   46  CL 2  Y   -0.104038   1.512527   0.011016   0.000000  -0.152700
   47  CL 2  Z    0.000000  -0.000000  -0.000000  -0.020925  -0.000000
   48  CL 2  X   -0.073715  -0.004906  -0.049027   0.000000  -0.003481
   49  CL 2  Y   -0.005011   0.072144  -0.003322   0.000000   0.051377
   50  CL 2  Z    0.000000  -0.000000  -0.000000  -0.074581  -0.000000
   51  CL 2  X   -0.716049  -0.049373   0.109843   0.000000   0.006844
   52  CL 2  Y   -0.048685   0.726228   0.007441   0.000000  -0.100997
   53  CL 2  Z    0.000000  -0.000000  -0.000000  -0.086040  -0.000000
   54  CL 2  X    1.947943   0.132253  -0.274340   0.000000  -0.017448
   55  CL 2  Y    0.132429  -1.945049  -0.018585   0.000000   0.257492
   56  CL 2  Z    0.000000  -0.000000  -0.000000   0.290475  -0.000000
   57  CL 2 XX    0.000000  -0.000000  -0.000000  -0.145815  -0.000000
   58  CL 2 YY    0.000000  -0.000000  -0.000000  -0.181964  -0.000000
   59  CL 2 ZZ    0.000000  -0.000000  -0.000000  -0.689278  -0.000000
   60  CL 2 XY    0.000000  -0.000000  -0.000000   0.002841  -0.000000
   61  CL 2 XZ    0.107279   0.007063  -0.686538   0.000000  -0.046562
   62  CL 2 YZ    0.007293  -0.103862  -0.046515   0.000000   0.687224

                     36         37         38         39         40
                    0.7560     0.7767     0.7840     0.7907     0.8146
                     A          A          A          A          A   
    1  CL 1  S   -0.012726   0.018227   0.000000   0.005956   0.000000
    2  CL 1  S   -0.038477   0.056193   0.000000   0.017869   0.000001
    3  CL 1  S    0.098823  -0.155309  -0.000001  -0.044501  -0.000002
    4  CL 1  S    0.067058  -0.028289  -0.000000  -0.040770   0.000001
    5  CL 1  S   -0.556487   1.018808   0.000008   0.253226   0.000014
    6  CL 1  S    0.775612  -2.719563  -0.000020  -0.294245  -0.000045
    7  CL 1  X    0.000000   0.000000  -0.000000   0.000000  -0.000000
    8  CL 1  Y    0.000000   0.000000  -0.000000   0.000000  -0.000000
    9  CL 1  Z    0.094277  -0.058092  -0.000001  -0.043719  -0.000000
   10  CL 1  X    0.000000   0.000000  -0.000000   0.000000  -0.000000
   11  CL 1  Y    0.000000   0.000000  -0.000000   0.000000  -0.000000
   12  CL 1  Z    0.018787  -0.021167  -0.000000  -0.008863  -0.000000
   13  CL 1  S   -0.142208   4.830566   0.000036   0.047802   0.000075
   14  CL 1  X    0.000000   0.000000  -0.000000   0.000000  -0.000000
   15  CL 1  Y    0.000000   0.000000  -0.000000   0.000000  -0.000000
   16  CL 1  Z   -0.415086   1.956985   0.000015   0.172707   0.000032
   17  CL 1  X    0.000000   0.000000  -0.000000   0.000000  -0.000000
   18  CL 1  Y    0.000000   0.000000  -0.000000   0.000000  -0.000000
   19  CL 1  Z   -0.070209   0.130710   0.000001   0.035525   0.000001
   20  CL 1  X    0.000000   0.000000  -0.000000   0.000000  -0.000000
   21  CL 1  Y    0.000000   0.000000  -0.000000   0.000000  -0.000000
   22  CL 1  Z   -0.413087  -0.168618  -0.000000   0.177039  -0.000002
   23  CL 1  X    0.000000   0.000000  -0.000000   0.000000  -0.000000
   24  CL 1  Y    0.000000   0.000000  -0.000000   0.000000  -0.000000
   25  CL 1  Z    0.649092  -0.497046  -0.000005  -0.280381  -0.000012
   26  CL 1 XX   -0.621462   0.105880  -0.082394  -0.384316  -0.082742
   27  CL 1 YY   -0.110367   0.246050   0.082398   0.712038   0.082751
   28  CL 1 ZZ    0.301134   0.610558   0.000003  -0.173162   0.000007
   29  CL 1 XY   -0.040169  -0.011022   0.698888  -0.086170   0.702424
   30  CL 1 XZ    0.000000   0.000000  -0.000000   0.000000  -0.000000
   31  CL 1 YZ    0.000000   0.000000  -0.000000   0.000000  -0.000000
   32  CL 2  S   -0.012736  -0.018215  -0.000000   0.005952  -0.000000
   33  CL 2  S   -0.038506  -0.056158  -0.000000   0.017857  -0.000001
   34  CL 2  S    0.098902   0.155220   0.000001  -0.044467   0.000002
   35  CL 2  S    0.067078   0.028217  -0.000000  -0.040767  -0.000001
   36  CL 2  S   -0.557019  -1.018201  -0.000006   0.253010  -0.000014
   37  CL 2  S    0.776995   2.718511   0.000017  -0.293652   0.000045
   38  CL 2  X    0.000000   0.000000  -0.000000   0.000000  -0.000000
   39  CL 2  Y    0.000000   0.000000  -0.000000   0.000000  -0.000000
   40  CL 2  Z   -0.094302  -0.058078  -0.000000   0.043704  -0.000000
   41  CL 2  X    0.000000   0.000000  -0.000000   0.000000  -0.000000
   42  CL 2  Y    0.000000   0.000000  -0.000000   0.000000  -0.000000
   43  CL 2  Z   -0.018796  -0.021165  -0.000000   0.008858  -0.000000
   44  CL 2  S   -0.144508  -4.830263  -0.000035   0.046724  -0.000075
   45  CL 2  X    0.000000   0.000000  -0.000000   0.000000  -0.000000
   46  CL 2  Y    0.000000   0.000000  -0.000000   0.000000  -0.000000
   47  CL 2  Z    0.416001   1.956779   0.000014  -0.172264   0.000032
   48  CL 2  X    0.000000   0.000000  -0.000000   0.000000  -0.000000
   49  CL 2  Y    0.000000   0.000000  -0.000000   0.000000  -0.000000
   50  CL 2  Z    0.070268   0.130714   0.000001  -0.035493   0.000001
   51  CL 2  X    0.000000   0.000000  -0.000000   0.000000  -0.000000
   52  CL 2  Y    0.000000   0.000000  -0.000000   0.000000  -0.000000
   53  CL 2  Z    0.412997  -0.168774  -0.000002  -0.177074  -0.000002
   54  CL 2  X    0.000000   0.000000  -0.000000   0.000000  -0.000000
   55  CL 2  Y    0.000000   0.000000  -0.000000   0.000000  -0.000000
   56  CL 2  Z   -0.649330  -0.496856  -0.000002   0.280264  -0.000012
   57  CL 2 XX   -0.621537  -0.105475  -0.082395  -0.384326   0.082742
   58  CL 2 YY   -0.110483  -0.246134   0.082394   0.711975  -0.082751
   59  CL 2 ZZ    0.300838  -0.610439  -0.000005  -0.173302  -0.000007
   60  CL 2 XY   -0.040166   0.011051   0.698889  -0.086166  -0.702424
   61  CL 2 XZ    0.000000   0.000000  -0.000000   0.000000  -0.000000
   62  CL 2 YZ    0.000000   0.000000  -0.000000   0.000000  -0.000000

                     41         42         43         44         45
                    0.8152     0.9224     0.9471     1.2693     2.1358
                     A          A          A          A          A   
    1  CL 1  S    0.001778  -0.000000  -0.000000  -0.008294   0.000000
    2  CL 1  S    0.005611  -0.000000  -0.000000  -0.026600   0.000000
    3  CL 1  S   -0.016796  -0.000000  -0.000000   0.083957   0.000000
    4  CL 1  S    0.005535  -0.000000  -0.000000  -0.043022   0.000000
    5  CL 1  S    0.122048  -0.000000  -0.000000  -0.646713   0.000000
    6  CL 1  S   -0.394969  -0.000000  -0.000000   2.233540   0.000000
    7  CL 1  X    0.000000   0.005446  -0.000295  -0.000000   0.547293
    8  CL 1  Y    0.000000   0.000369   0.004346  -0.000000   0.037084
    9  CL 1  Z   -0.003839  -0.000000  -0.000000  -0.147177   0.000000
   10  CL 1  X    0.000000  -0.002142   0.000172  -0.000000   0.180404
   11  CL 1  Y    0.000000  -0.000145  -0.002534  -0.000000   0.012224
   12  CL 1  Z   -0.001564  -0.000000  -0.000000  -0.045019   0.000000
   13  CL 1  S    0.629063  -0.000000  -0.000000  -1.972822   0.000000
   14  CL 1  X    0.000000  -0.304774   0.020198  -0.000000   0.323225
   15  CL 1  Y    0.000000  -0.020647  -0.298054  -0.000000   0.021901
   16  CL 1  Z    0.270902  -0.000000  -0.000000  -1.138887   0.000000
   17  CL 1  X    0.000000   0.023789  -0.001743  -0.000000  -1.377471
   18  CL 1  Y    0.000000   0.001612   0.025726  -0.000000  -0.093337
   19  CL 1  Z    0.010494  -0.000000  -0.000000   0.274067   0.000000
   20  CL 1  X    0.000000  -0.173454   0.011713  -0.000000   1.463437
   21  CL 1  Y    0.000000  -0.011752  -0.172859  -0.000000   0.099162
   22  CL 1  Z   -0.017161  -0.000000  -0.000000  -0.140908   0.000000
   23  CL 1  X    0.000000   0.506724  -0.033732  -0.000000  -0.787182
   24  CL 1  Y    0.000000   0.034331   0.497811  -0.000000  -0.053339
   25  CL 1  Z   -0.110812  -0.000000  -0.000000   1.251370   0.000000
   26  CL 1 XX    0.643259  -0.000000  -0.000000  -0.581181   0.000000
   27  CL 1 YY   -0.564629  -0.000000  -0.000000  -0.613015   0.000000
   28  CL 1 ZZ    0.061995  -0.000000  -0.000000   0.456137   0.000000
   29  CL 1 XY    0.094859  -0.000000  -0.000000   0.002502   0.000000
   30  CL 1 XZ    0.000000   0.719695  -0.048799  -0.000000  -0.035212
   31  CL 1 YZ    0.000000   0.048764   0.720221  -0.000000  -0.002386
   32  CL 2  S   -0.001777  -0.000000  -0.000000   0.008293   0.000000
   33  CL 2  S   -0.005608  -0.000000  -0.000000   0.026597   0.000000
   34  CL 2  S    0.016789  -0.000000  -0.000000  -0.083952   0.000000
   35  CL 2  S   -0.005543  -0.000000  -0.000000   0.043035   0.000000
   36  CL 2  S   -0.121991  -0.000000  -0.000000   0.646657   0.000000
   37  CL 2  S    0.394877  -0.000000  -0.000000  -2.233473   0.000000
   38  CL 2  X    0.000000  -0.005446   0.000295  -0.000000   0.547292
   39  CL 2  Y    0.000000  -0.000369  -0.004346  -0.000000   0.037085
   40  CL 2  Z   -0.003838  -0.000000  -0.000000  -0.147179   0.000000
   41  CL 2  X    0.000000   0.002143  -0.000172  -0.000000   0.180404
   42  CL 2  Y    0.000000   0.000145   0.002534  -0.000000   0.012224
   43  CL 2  Z   -0.001564  -0.000000  -0.000000  -0.045019   0.000000
   44  CL 2  S   -0.629036  -0.000000  -0.000000   1.972799   0.000000
   45  CL 2  X    0.000000   0.304774  -0.020198  -0.000000   0.323224
   46  CL 2  Y    0.000000   0.020647   0.298054  -0.000000   0.021901
   47  CL 2  Z    0.270884  -0.000000  -0.000000  -1.138874   0.000000
   48  CL 2  X    0.000000  -0.023789   0.001743  -0.000000  -1.377470
   49  CL 2  Y    0.000000  -0.001612  -0.025726  -0.000000  -0.093337
   50  CL 2  Z    0.010494  -0.000000  -0.000000   0.274068   0.000000
   51  CL 2  X    0.000000   0.173454  -0.011713  -0.000000   1.463436
   52  CL 2  Y    0.000000   0.011752   0.172859  -0.000000   0.099162
   53  CL 2  Z   -0.017174  -0.000000  -0.000000  -0.140900   0.000000
   54  CL 2  X    0.000000  -0.506724   0.033732  -0.000000  -0.787182
   55  CL 2  Y    0.000000  -0.034331  -0.497811  -0.000000  -0.053339
   56  CL 2  Z   -0.110797  -0.000000  -0.000000   1.251360   0.000000
   57  CL 2 XX   -0.643251  -0.000000  -0.000000   0.581181   0.000000
   58  CL 2 YY    0.564645  -0.000000  -0.000000   0.613015   0.000000
   59  CL 2 ZZ   -0.061985  -0.000000  -0.000000  -0.456141   0.000000
   60  CL 2 XY   -0.094860  -0.000000  -0.000000  -0.002502   0.000000
   61  CL 2 XZ    0.000000   0.719695  -0.048799  -0.000000   0.035212
   62  CL 2 YZ    0.000000   0.048764   0.720221  -0.000000   0.002386

                     46         47         48         49         50
                    2.1597     2.2140     2.2318     2.2566     2.4255
                     A          A          A          A          A   
    1  CL 1  S   -0.000000   0.003496   0.000000  -0.000000   0.004160
    2  CL 1  S   -0.000000   0.009539   0.000000  -0.000000   0.010835
    3  CL 1  S   -0.000000  -0.013664   0.000000  -0.000000  -0.009327
    4  CL 1  S   -0.000000  -0.101954   0.000000  -0.000000  -0.157714
    5  CL 1  S   -0.000000   0.199469   0.000000  -0.000000   0.155671
    6  CL 1  S   -0.000000  -0.049826   0.000000  -0.000000   0.431623
    7  CL 1  X   -0.037101  -0.000000  -0.546614  -0.037048   0.000000
    8  CL 1  Y    0.547529  -0.000000  -0.037043   0.546691   0.000000
    9  CL 1  Z   -0.000000  -0.548026   0.000000  -0.000000   0.527074
   10  CL 1  X   -0.012227  -0.000000  -0.179751  -0.012181   0.000000
   11  CL 1  Y    0.180447  -0.000000  -0.012182   0.179743   0.000000
   12  CL 1  Z   -0.000000  -0.173867   0.000000  -0.000000   0.179197
   13  CL 1  S   -0.000000   0.074605   0.000000  -0.000000  -0.839888
   14  CL 1  X   -0.021763  -0.000000  -0.610514  -0.041094   0.000000
   15  CL 1  Y    0.321166  -0.000000  -0.041371   0.606350   0.000000
   16  CL 1  Z   -0.000000  -0.452100   0.000000  -0.000000  -0.008267
   17  CL 1  X    0.093357  -0.000000   1.406809   0.095347   0.000000
   18  CL 1  Y   -1.377747  -0.000000   0.095338  -1.406955   0.000000
   19  CL 1  Z   -0.000000   1.364389   0.000000  -0.000000  -1.465482
   20  CL 1  X   -0.099002  -0.000000  -1.537310  -0.104037   0.000000
   21  CL 1  Y    1.461065  -0.000000  -0.104181   1.535178   0.000000
   22  CL 1  Z   -0.000000  -1.387404   0.000000  -0.000000   1.813922
   23  CL 1  X    0.053058  -0.000000   1.055863   0.071144   0.000000
   24  CL 1  Y   -0.783012  -0.000000   0.071553  -1.049783   0.000000
   25  CL 1  Z   -0.000000   0.846654   0.000000  -0.000000  -0.864155
   26  CL 1 XX   -0.000000  -0.153569   0.000000  -0.000000  -0.326271
   27  CL 1 YY   -0.000000  -0.154602   0.000000  -0.000000  -0.328781
   28  CL 1 ZZ   -0.000000   0.068328   0.000000  -0.000000   0.175024
   29  CL 1 XY   -0.000000   0.000081   0.000000  -0.000000   0.000197
   30  CL 1 XZ    0.002412  -0.000000  -0.022856  -0.001594   0.000000
   31  CL 1 YZ   -0.035592  -0.000000  -0.001549   0.023522   0.000000
   32  CL 2  S   -0.000000   0.003496   0.000000  -0.000000  -0.004161
   33  CL 2  S   -0.000000   0.009539   0.000000  -0.000000  -0.010836
   34  CL 2  S   -0.000000  -0.013665   0.000000  -0.000000   0.009325
   35  CL 2  S   -0.000000  -0.101946   0.000000  -0.000000   0.157760
   36  CL 2  S   -0.000000   0.199459   0.000000  -0.000000  -0.155763
   37  CL 2  S   -0.000000  -0.049847   0.000000  -0.000000  -0.431640
   38  CL 2  X   -0.037100  -0.000000   0.546615   0.037048   0.000000
   39  CL 2  Y    0.547529  -0.000000   0.037043  -0.546691   0.000000
   40  CL 2  Z   -0.000000   0.548032   0.000000  -0.000000   0.527069
   41  CL 2  X   -0.012227  -0.000000   0.179751   0.012181   0.000000
   42  CL 2  Y    0.180447  -0.000000   0.012181  -0.179742   0.000000
   43  CL 2  Z   -0.000000   0.173869   0.000000  -0.000000   0.179196
   44  CL 2  S   -0.000000   0.074659   0.000000  -0.000000   0.839889
   45  CL 2  X   -0.021763  -0.000000   0.610514   0.041094   0.000000
   46  CL 2  Y    0.321166  -0.000000   0.041371  -0.606350   0.000000
   47  CL 2  Z   -0.000000   0.452077   0.000000  -0.000000  -0.008274
   48  CL 2  X    0.093355  -0.000000  -1.406810  -0.095347   0.000000
   49  CL 2  Y   -1.377748  -0.000000  -0.095337   1.406955   0.000000
   50  CL 2  Z   -0.000000  -1.364404   0.000000  -0.000000  -1.465470
   51  CL 2  X   -0.099001  -0.000000   1.537310   0.104037   0.000000
   52  CL 2  Y    1.461065  -0.000000   0.104180  -1.535178   0.000000
   53  CL 2  Z   -0.000000   1.387421   0.000000  -0.000000   1.813908
   54  CL 2  X    0.053057  -0.000000  -1.055863  -0.071144   0.000000
   55  CL 2  Y   -0.783013  -0.000000  -0.071552   1.049782   0.000000
   56  CL 2  Z   -0.000000  -0.846653   0.000000  -0.000000  -0.864145
   57  CL 2 XX   -0.000000  -0.153559   0.000000  -0.000000   0.326312
   58  CL 2 YY   -0.000000  -0.154592   0.000000  -0.000000   0.328822
   59  CL 2 ZZ   -0.000000   0.068331   0.000000  -0.000000  -0.174989
   60  CL 2 XY   -0.000000   0.000081   0.000000  -0.000000  -0.000197
   61  CL 2 XZ   -0.002412  -0.000000  -0.022856  -0.001594   0.000000
   62  CL 2 YZ    0.035592  -0.000000  -0.001549   0.023521   0.000000

                     51         52         53         54         55
                    3.4739     3.7602    14.2402    14.4716    25.6163
                     A          A          A          A          A   
    1  CL 1  S    0.040906   0.041341  -0.085469  -0.085369  -0.000000
    2  CL 1  S    0.105175   0.107335  -0.361878  -0.362276  -0.000000
    3  CL 1  S   -0.070197  -0.082490   2.458308   2.486130  -0.000000
    4  CL 1  S   -1.817688  -1.840822  -4.522794  -4.661962  -0.000000
    5  CL 1  S    3.814477   3.768798   4.884869   5.072277  -0.000000
    6  CL 1  S    1.281506   2.007548   0.506662   0.868594  -0.000000
    7  CL 1  X   -0.000000   0.000000   0.000000   0.000000   2.391979
    8  CL 1  Y   -0.000000   0.000000   0.000000   0.000000   0.162048
    9  CL 1  Z    0.044164  -0.052108   0.000144   0.006764  -0.000000
   10  CL 1  X   -0.000000   0.000000   0.000000   0.000000   2.418791
   11  CL 1  Y   -0.000000   0.000000   0.000000   0.000000   0.163865
   12  CL 1  Z    0.015529  -0.015662  -0.002853   0.012863  -0.000000
   13  CL 1  S   -0.266867  -2.040081  -0.106200  -0.912997  -0.000000
   14  CL 1  X   -0.000000   0.000000   0.000000   0.000000   0.149831
   15  CL 1  Y   -0.000000   0.000000   0.000000   0.000000   0.010151
   16  CL 1  Z   -0.032158  -0.919672  -0.023334  -0.403077  -0.000000
   17  CL 1  X   -0.000000   0.000000   0.000000   0.000000  -1.682140
   18  CL 1  Y   -0.000000   0.000000   0.000000   0.000000  -0.113959
   19  CL 1  Z   -0.123978   0.174461  -0.016450   0.027342  -0.000000
   20  CL 1  X   -0.000000   0.000000   0.000000   0.000000   0.852994
   21  CL 1  Y   -0.000000   0.000000   0.000000   0.000000   0.057787
   22  CL 1  Z    0.088143  -0.207091   0.005498  -0.042165  -0.000000
   23  CL 1  X   -0.000000   0.000000   0.000000   0.000000  -0.365970
   24  CL 1  Y   -0.000000   0.000000   0.000000   0.000000  -0.024793
   25  CL 1  Z   -0.042692   0.575057   0.000486   0.225198  -0.000000
   26  CL 1 XX   -1.798952  -1.860930  -1.620943  -1.736878  -0.000000
   27  CL 1 YY   -1.801450  -1.862818  -1.620703  -1.736627  -0.000000
   28  CL 1 ZZ   -1.748771  -1.879230  -1.602332  -1.738125  -0.000000
   29  CL 1 XY    0.000196   0.000148  -0.000019  -0.000020  -0.000000
   30  CL 1 XZ   -0.000000   0.000000   0.000000   0.000000  -0.009824
   31  CL 1 YZ   -0.000000   0.000000   0.000000   0.000000  -0.000666
   32  CL 2  S    0.040914  -0.041333  -0.085497   0.085342  -0.000000
   33  CL 2  S    0.105194  -0.107313  -0.361996   0.362160  -0.000000
   34  CL 2  S   -0.070203   0.082463   2.459109  -2.485338  -0.000000
   35  CL 2  S   -1.818052   1.840504  -4.524285   4.660495  -0.000000
   36  CL 2  S    3.815235  -3.768108   4.886484  -5.070683  -0.000000
   37  CL 2  S    1.281772  -2.007294   0.506910  -0.868423  -0.000000
   38  CL 2  X   -0.000000   0.000000   0.000000   0.000000   2.391978
   39  CL 2  Y   -0.000000   0.000000   0.000000   0.000000   0.162048
   40  CL 2  Z   -0.044145  -0.052117  -0.000147   0.006764  -0.000000
   41  CL 2  X   -0.000000   0.000000   0.000000   0.000000   2.418790
   42  CL 2  Y   -0.000000   0.000000   0.000000   0.000000   0.163865
   43  CL 2  Z   -0.015523  -0.015665   0.002848   0.012865  -0.000000
   44  CL 2  S   -0.266555   2.040025  -0.106334   0.912960  -0.000000
   45  CL 2  X   -0.000000   0.000000   0.000000   0.000000   0.149831
   46  CL 2  Y   -0.000000   0.000000   0.000000   0.000000   0.010151
   47  CL 2  Z    0.032045  -0.919663   0.023397  -0.403069  -0.000000
   48  CL 2  X   -0.000000   0.000000   0.000000   0.000000  -1.682140
   49  CL 2  Y   -0.000000   0.000000   0.000000   0.000000  -0.113959
   50  CL 2  Z    0.123915   0.174487   0.016441   0.027347  -0.000000
   51  CL 2  X   -0.000000   0.000000   0.000000   0.000000   0.852994
   52  CL 2  Y   -0.000000   0.000000   0.000000   0.000000   0.057787
   53  CL 2  Z   -0.088058  -0.207112  -0.005481  -0.042167  -0.000000
   54  CL 2  X   -0.000000   0.000000   0.000000   0.000000  -0.365970
   55  CL 2  Y   -0.000000   0.000000   0.000000   0.000000  -0.024793
   56  CL 2  Z    0.042555   0.575069  -0.000561   0.225199  -0.000000
   57  CL 2 XX   -1.799295   1.860598  -1.621489   1.736347  -0.000000
   58  CL 2 YY   -1.801793   1.862486  -1.621250   1.736096  -0.000000
   59  CL 2 ZZ   -1.749127   1.878904  -1.602879   1.737600  -0.000000
   60  CL 2 XY    0.000196  -0.000148  -0.000019   0.000020  -0.000000
   61  CL 2 XZ   -0.000000   0.000000   0.000000   0.000000   0.009824
   62  CL 2 YZ   -0.000000   0.000000   0.000000   0.000000   0.000666

                     56         57         58         59         60
                   25.6381    25.8326    25.8543    25.9314    26.2020
                     A          A          A          A          A   
    1  CL 1  S    0.000000  -0.000000   0.000000   0.001102  -0.000437
    2  CL 1  S    0.000000  -0.000000   0.000000   0.004422  -0.001781
    3  CL 1  S    0.000000  -0.000000   0.000000  -0.041747   0.017987
    4  CL 1  S    0.000000  -0.000000   0.000000   0.119797  -0.060027
    5  CL 1  S    0.000000  -0.000000   0.000000  -0.215594   0.100483
    6  CL 1  S    0.000000  -0.000000   0.000000  -0.035219   0.088525
    7  CL 1  X   -0.162055  -2.411560  -0.163386   0.000000   0.000000
    8  CL 1  Y    2.392068  -0.163380   2.411651   0.000000   0.000000
    9  CL 1  Z    0.000000  -0.000000   0.000000   2.433381   2.440847
   10  CL 1  X   -0.163866  -2.433334  -0.164856   0.000000   0.000000
   11  CL 1  Y    2.418811  -0.164855   2.433356   0.000000   0.000000
   12  CL 1  Z    0.000000  -0.000000   0.000000   2.449982   2.458005
   13  CL 1  S    0.000000  -0.000000   0.000000  -0.216738  -0.049929
   14  CL 1  X   -0.010145  -0.290282  -0.019655   0.000000   0.000000
   15  CL 1  Y    0.149746  -0.019666   0.290115   0.000000   0.000000
   16  CL 1  Z    0.000000  -0.000000   0.000000   0.099545   0.220409
   17  CL 1  X    0.113961   1.723064   0.116737   0.000000   0.000000
   18  CL 1  Y   -1.682169   0.116735  -1.723100   0.000000   0.000000
   19  CL 1  Z    0.000000  -0.000000   0.000000  -1.793126  -1.736432
   20  CL 1  X   -0.057774  -0.912508  -0.061809   0.000000   0.000000
   21  CL 1  Y    0.852794  -0.061821   0.912323   0.000000   0.000000
   22  CL 1  Z    0.000000  -0.000000   0.000000   1.067310   0.862157
   23  CL 1  X    0.024781   0.501242   0.033942   0.000000   0.000000
   24  CL 1  Y   -0.365791   0.033958  -0.500993   0.000000   0.000000
   25  CL 1  Z    0.000000  -0.000000   0.000000  -0.526535  -0.415144
   26  CL 1 XX    0.000000  -0.000000   0.000000   0.035048  -0.030350
   27  CL 1 YY    0.000000  -0.000000   0.000000   0.035050  -0.030341
   28  CL 1 ZZ    0.000000  -0.000000   0.000000   0.168478  -0.101225
   29  CL 1 XY    0.000000  -0.000000   0.000000  -0.000000  -0.000001
   30  CL 1 XZ    0.000665  -0.007645  -0.000520   0.000000   0.000000
   31  CL 1 YZ   -0.009815  -0.000518   0.007670   0.000000   0.000000
   32  CL 2  S    0.000000  -0.000000   0.000000  -0.001102  -0.000437
   33  CL 2  S    0.000000  -0.000000   0.000000  -0.004422  -0.001781
   34  CL 2  S    0.000000  -0.000000   0.000000   0.041748   0.017986
   35  CL 2  S    0.000000  -0.000000   0.000000  -0.119800  -0.060025
   36  CL 2  S    0.000000  -0.000000   0.000000   0.215597   0.100481
   37  CL 2  S    0.000000  -0.000000   0.000000   0.035220   0.088522
   38  CL 2  X   -0.162054   2.411561   0.163386   0.000000   0.000000
   39  CL 2  Y    2.392069   0.163379  -2.411650   0.000000   0.000000
   40  CL 2  Z    0.000000  -0.000000   0.000000   2.433389  -2.440839
   41  CL 2  X   -0.163866   2.433334   0.164856   0.000000   0.000000
   42  CL 2  Y    2.418812   0.164855  -2.433355   0.000000   0.000000
   43  CL 2  Z    0.000000  -0.000000   0.000000   2.449990  -2.457997
   44  CL 2  S    0.000000  -0.000000   0.000000   0.216738  -0.049915
   45  CL 2  X   -0.010145   0.290282   0.019655   0.000000   0.000000
   46  CL 2  Y    0.149746   0.019666  -0.290115   0.000000   0.000000
   47  CL 2  Z    0.000000  -0.000000   0.000000   0.099546  -0.220414
   48  CL 2  X    0.113961  -1.723064  -0.116737   0.000000   0.000000
[...]
   19  CL 1  Z   -0.121407   0.178811  -0.016624   0.027204   0.000000
   20  CL 1  X   -0.000000  -0.000000  -0.000000  -0.000000   0.852792
   21  CL 1  Y   -0.000000  -0.000000  -0.000000  -0.000000   0.057819
   22  CL 1  Z    0.088329  -0.211073   0.005834  -0.041903   0.000000
   23  CL 1  X   -0.000000  -0.000000  -0.000000  -0.000000  -0.365768
   24  CL 1  Y   -0.000000  -0.000000  -0.000000  -0.000000  -0.024799
   25  CL 1  Z   -0.043353   0.574281   0.000278   0.225050   0.000000
   26  CL 1 XX   -1.798814  -1.858996  -1.621475  -1.737486   0.000000
   27  CL 1 YY   -1.798810  -1.859037  -1.621717  -1.737740   0.000000
   28  CL 1 ZZ   -1.746236  -1.878311  -1.602853  -1.738787   0.000000
   29  CL 1 XY   -0.000000   0.000003   0.000019   0.000020   0.000000
   30  CL 1 XZ   -0.000000  -0.000000  -0.000000  -0.000000  -0.009902
   31  CL 1 YZ   -0.000000  -0.000000  -0.000000  -0.000000  -0.000671
   32  CL 2  S    0.040988  -0.041367  -0.085468   0.085313   0.000000
   33  CL 2  S    0.105516  -0.107525  -0.361898   0.362065   0.000000
   34  CL 2  S   -0.071890   0.083971   2.458925  -2.485197   0.000000
   35  CL 2  S   -1.815589   1.837199  -4.525251   4.661642   0.000000
   36  CL 2  S    3.814972  -3.766799   4.889351  -5.073833   0.000000
   37  CL 2  S    1.275942  -1.997858   0.506615  -0.868196   0.000000
   38  CL 2  X   -0.000000  -0.000000  -0.000000  -0.000000   2.392236
   39  CL 2  Y   -0.000000  -0.000000  -0.000000  -0.000000   0.162192
   40  CL 2  Z   -0.042418  -0.054185  -0.000456   0.007041   0.000000
   41  CL 2  X   -0.000000  -0.000000  -0.000000  -0.000000   2.418852
   42  CL 2  Y   -0.000000  -0.000000  -0.000000  -0.000000   0.163997
   43  CL 2  Z   -0.014935  -0.016365   0.002625   0.013061   0.000000
   44  CL 2  S   -0.265168   2.027565  -0.106263   0.912520   0.000000
   45  CL 2  X   -0.000000  -0.000000  -0.000000  -0.000000   0.149739
   46  CL 2  Y   -0.000000  -0.000000  -0.000000  -0.000000   0.010152
   47  CL 2  Z    0.031320  -0.914903   0.023262  -0.402857   0.000000
   48  CL 2  X   -0.000000  -0.000000  -0.000000  -0.000000  -1.682542
   49  CL 2  Y   -0.000000  -0.000000  -0.000000  -0.000000  -0.114075
   50  CL 2  Z    0.121345   0.178835   0.016615   0.027210   0.000000
   51  CL 2  X   -0.000000  -0.000000  -0.000000  -0.000000   0.852793
   52  CL 2  Y   -0.000000  -0.000000  -0.000000  -0.000000   0.057819
   53  CL 2  Z   -0.088246  -0.211093  -0.005818  -0.041906   0.000000
   54  CL 2  X   -0.000000  -0.000000  -0.000000  -0.000000  -0.365768
   55  CL 2  Y   -0.000000  -0.000000  -0.000000  -0.000000  -0.024799
   56  CL 2  Z    0.043222   0.574294  -0.000348   0.225051   0.000000
   57  CL 2 XX   -1.799139   1.858681  -1.621989   1.736986   0.000000
   58  CL 2 YY   -1.799135   1.858722  -1.622231   1.737241   0.000000
   59  CL 2 ZZ   -1.746574   1.878002  -1.603368   1.738293   0.000000
   60  CL 2 XY   -0.000000  -0.000003   0.000019  -0.000020   0.000000
   61  CL 2 XZ   -0.000000  -0.000000  -0.000000  -0.000000   0.009902
   62  CL 2 YZ   -0.000000  -0.000000  -0.000000  -0.000000   0.000671

                     56         57         58         59         60
                   25.6452    25.8529    25.8615    25.9496    26.2189
                     A          A          A          A          A   
    1  CL 1  S    0.000000   0.000000  -0.000000   0.001117  -0.000421
    2  CL 1  S    0.000000   0.000000  -0.000000   0.004449  -0.001751
    3  CL 1  S    0.000000   0.000000  -0.000000  -0.041923   0.017790
    4  CL 1  S    0.000000   0.000000  -0.000000   0.119997  -0.059792
    5  CL 1  S    0.000000   0.000000  -0.000000  -0.215726   0.100395
    6  CL 1  S    0.000000   0.000000  -0.000000  -0.035144   0.088337
    7  CL 1  X   -0.162187   2.411826  -0.163510   0.000000   0.000000
    8  CL 1  Y    2.392164   0.163515   2.411750   0.000000   0.000000
    9  CL 1  Z    0.000000   0.000000  -0.000000   2.433618   2.441049
   10  CL 1  X   -0.163995   2.433400  -0.164977   0.000000   0.000000
   11  CL 1  Y    2.418830   0.164978   2.433377   0.000000   0.000000
   12  CL 1  Z    0.000000   0.000000  -0.000000   2.450046   2.458059
   13  CL 1  S    0.000000   0.000000  -0.000000  -0.216622  -0.049867
   14  CL 1  X   -0.010150   0.290116  -0.019665   0.000000   0.000000
   15  CL 1  Y    0.149710   0.019669   0.290061   0.000000   0.000000
   16  CL 1  Z    0.000000   0.000000  -0.000000   0.099492   0.220320
   17  CL 1  X    0.114062  -1.723497   0.116835   0.000000   0.000000
   18  CL 1  Y   -1.682347  -0.116848  -1.723290   0.000000   0.000000
   19  CL 1  Z    0.000000   0.000000  -0.000000  -1.793541  -1.736730
   20  CL 1  X   -0.057814   0.912372  -0.061850   0.000000   0.000000
   21  CL 1  Y    0.852719   0.061856   0.912274   0.000000   0.000000
   22  CL 1  Z    0.000000   0.000000  -0.000000   1.067295   0.861984
   23  CL 1  X    0.024795  -0.500992   0.033960   0.000000   0.000000
   24  CL 1  Y   -0.365713  -0.033966  -0.500908   0.000000   0.000000
   25  CL 1  Z    0.000000   0.000000  -0.000000  -0.526285  -0.414967
   26  CL 1 XX    0.000000   0.000000  -0.000000   0.035038  -0.030324
   27  CL 1 YY    0.000000   0.000000  -0.000000   0.035034  -0.030326
   28  CL 1 ZZ    0.000000   0.000000  -0.000000   0.168622  -0.101123
   29  CL 1 XY    0.000000   0.000000  -0.000000   0.000000   0.000000
   30  CL 1 XZ    0.000671   0.007609  -0.000515   0.000000   0.000000
   31  CL 1 YZ   -0.009903   0.000516   0.007599   0.000000   0.000000
   32  CL 2  S    0.000000   0.000000  -0.000000  -0.001117  -0.000421
   33  CL 2  S    0.000000   0.000000  -0.000000  -0.004449  -0.001751
   34  CL 2  S    0.000000   0.000000  -0.000000   0.041924   0.017789
   35  CL 2  S    0.000000   0.000000  -0.000000  -0.120000  -0.059790
   36  CL 2  S    0.000000   0.000000  -0.000000   0.215729   0.100394
   37  CL 2  S    0.000000   0.000000  -0.000000   0.035145   0.088334
   38  CL 2  X   -0.162188  -2.411825   0.163510   0.000000   0.000000
   39  CL 2  Y    2.392165  -0.163516  -2.411749   0.000000   0.000000
   40  CL 2  Z    0.000000   0.000000  -0.000000   2.433628  -2.441039
   41  CL 2  X   -0.163996  -2.433399   0.164976   0.000000   0.000000
   42  CL 2  Y    2.418831  -0.164978  -2.433376   0.000000   0.000000
   43  CL 2  Z    0.000000   0.000000  -0.000000   2.450056  -2.458049
   44  CL 2  S    0.000000   0.000000  -0.000000   0.216622  -0.049853
   45  CL 2  X   -0.010150  -0.290116   0.019665   0.000000   0.000000
   46  CL 2  Y    0.149710  -0.019669  -0.290061   0.000000   0.000000
   47  CL 2  Z    0.000000   0.000000  -0.000000   0.099493  -0.220325
   48  CL 2  X    0.114063   1.723497  -0.116834   0.000000   0.000000
   49  CL 2  Y   -1.682347   0.116849   1.723289   0.000000   0.000000
   50  CL 2  Z    0.000000   0.000000  -0.000000  -1.793548   1.736722
   51  CL 2  X   -0.057814  -0.912372   0.061850   0.000000   0.000000
   52  CL 2  Y    0.852720  -0.061856  -0.912273   0.000000   0.000000
   53  CL 2  Z    0.000000   0.000000  -0.000000   1.067299  -0.861980
   54  CL 2  X    0.024795   0.500992  -0.033960   0.000000   0.000000
   55  CL 2  Y   -0.365713   0.033966   0.500908   0.000000   0.000000
   56  CL 2  Z    0.000000   0.000000  -0.000000  -0.526287   0.414965
   57  CL 2 XX    0.000000   0.000000  -0.000000  -0.035039  -0.030322
   58  CL 2 YY    0.000000   0.000000  -0.000000  -0.035035  -0.030324
   59  CL 2 ZZ    0.000000   0.000000  -0.000000  -0.168623  -0.101122
   60  CL 2 XY    0.000000   0.000000  -0.000000  -0.000000   0.000000
   61  CL 2 XZ   -0.000671   0.007609  -0.000515   0.000000   0.000000
   62  CL 2 YZ    0.009903   0.000516   0.007599   0.000000   0.000000

                     61         62
                  222.0781   222.3535
                     A          A   
    1  CL 1  S   -1.101746  -1.102259
    2  CL 1  S    1.408504   1.410829
    3  CL 1  S   -1.331251  -1.346094
    4  CL 1  S    1.479386   1.524117
    5  CL 1  S   -1.344812  -1.397129
    6  CL 1  S   -0.134839  -0.230398
    7  CL 1  X   -0.000000   0.000000
    8  CL 1  Y   -0.000000   0.000000
    9  CL 1  Z   -0.004019   0.008320
   10  CL 1  X   -0.000000   0.000000
   11  CL 1  Y   -0.000000   0.000000
   12  CL 1  Z   -0.003276   0.006942
   13  CL 1  S    0.029259   0.249925
   14  CL 1  X   -0.000000   0.000000
   15  CL 1  Y   -0.000000   0.000000
   16  CL 1  Z    0.006513   0.111458
   17  CL 1  X   -0.000000   0.000000
   18  CL 1  Y   -0.000000   0.000000
   19  CL 1  Z    0.006882  -0.013775
   20  CL 1  X   -0.000000   0.000000
   21  CL 1  Y   -0.000000   0.000000
   22  CL 1  Z   -0.002140   0.013922
   23  CL 1  X   -0.000000   0.000000
   24  CL 1  Y   -0.000000   0.000000
   25  CL 1  Z    0.000029  -0.063249
   26  CL 1 XX    0.437596   0.468355
   27  CL 1 YY    0.437599   0.468358
   28  CL 1 ZZ    0.433605   0.467848
   29  CL 1 XY   -0.000000  -0.000000
   30  CL 1 XZ   -0.000000   0.000000
   31  CL 1 YZ   -0.000000   0.000000
   32  CL 2  S   -1.101781   1.102225
   33  CL 2  S    1.408549  -1.410785
   34  CL 2  S   -1.331293   1.346052
   35  CL 2  S    1.479434  -1.524070
   36  CL 2  S   -1.344855   1.397086
   37  CL 2  S   -0.134846   0.230393
   38  CL 2  X   -0.000000   0.000000
   39  CL 2  Y   -0.000000   0.000000
   40  CL 2  Z    0.004018   0.008320
   41  CL 2  X   -0.000000   0.000000
   42  CL 2  Y   -0.000000   0.000000
   43  CL 2  Z    0.003275   0.006943
   44  CL 2  S    0.029264  -0.249924
   45  CL 2  X   -0.000000   0.000000
   46  CL 2  Y   -0.000000   0.000000
   47  CL 2  Z   -0.006515   0.111458
   48  CL 2  X   -0.000000   0.000000
   49  CL 2  Y   -0.000000   0.000000
   50  CL 2  Z   -0.006882  -0.013775
   51  CL 2  X   -0.000000   0.000000
   52  CL 2  Y   -0.000000   0.000000
   53  CL 2  Z    0.002139   0.013923
   54  CL 2  X   -0.000000   0.000000
   55  CL 2  Y   -0.000000   0.000000
   56  CL 2  Z   -0.000027  -0.063249
   57  CL 2 XX    0.437611  -0.468341
   58  CL 2 YY    0.437614  -0.468344
   59  CL 2 ZZ    0.433619  -0.467834
   60  CL 2 XY   -0.000000   0.000000
   61  CL 2 XZ   -0.000000   0.000000
   62  CL 2 YZ   -0.000000   0.000000
 ...... END OF UHF CALCULATION ......
 STEP CPU TIME =     2.75 TOTAL CPU TIME =          2.8 (      0.0 MIN)
 TOTAL WALL CLOCK TIME=          2.9 SECONDS, CPU UTILIZATION IS    99.65%

     ---------------------------------------------------------------------
     PROPERTIES FOR THE B3LYP    DFT FUNCTIONAL (UHF  TYPE) DENSITY MATRIX
     ---------------------------------------------------------------------

          -----------------
          ENERGY COMPONENTS
          -----------------

         WAVEFUNCTION NORMALIZATION =       1.0000000000

                ONE ELECTRON ENERGY =   -1423.1141649508
                TWO ELECTRON ENERGY =     426.0087156017
           NUCLEAR REPULSION ENERGY =      76.9315483829
                                      ------------------
                       TOTAL ENERGY =    -920.1739009662

 ELECTRON-ELECTRON POTENTIAL ENERGY =     426.0087156017
  NUCLEUS-ELECTRON POTENTIAL ENERGY =   -2341.8136004316
   NUCLEUS-NUCLEUS POTENTIAL ENERGY =      76.9315483829
                                      ------------------
             TOTAL POTENTIAL ENERGY =   -1838.8733364470
               TOTAL KINETIC ENERGY =     918.6994354808
                 VIRIAL RATIO (V/T) =       2.0016049487

          ---------------------------------------
          MULLIKEN AND LOWDIN POPULATION ANALYSES
          ---------------------------------------

     ATOMIC MULLIKEN POPULATION IN EACH MOLECULAR ORBITAL
        ALPHA ORBITALS

                      1          2          3          4          5

                  1.000000   1.000000   1.000000   1.000000   1.000000

    1             0.331148   0.668852   0.492158   0.507842   0.499819
    2             0.668852   0.331148   0.507842   0.492158   0.500181

                      6          7          8          9         10

                  1.000000   1.000000   1.000000   1.000000   1.000000

    1             0.500181   0.223335   0.776665   0.418730   0.581270
    2             0.499819   0.776665   0.223335   0.581270   0.418730

                     11         12         13         14         15

                  1.000000   1.000000   1.000000   1.000000   1.000000

    1             0.499957   0.500002   0.500021   0.500000   0.500000
    2             0.500043   0.499998   0.499979   0.500000   0.500000

                     16         17         18

                  1.000000   1.000000   1.000000

    1             0.500000   0.500000   0.499998
    2             0.500000   0.500000   0.500002

     ATOMIC MULLIKEN POPULATION IN EACH MOLECULAR ORBITAL
         BETA ORBITALS

                      1          2          3          4          5

                  1.000000   1.000000   1.000000   1.000000   1.000000

    1             0.030056   0.969944   0.496831   0.503169   0.499477
    2             0.969944   0.030056   0.503169   0.496831   0.500523

                      6          7          8          9         10

                  1.000000   1.000000   1.000000   1.000000   1.000000

    1             0.500523   0.493785   0.506215   0.491729   0.508271
    2             0.499477   0.506215   0.493785   0.508271   0.491729

                     11         12         13         14         15

                  1.000000   1.000000   1.000000   1.000000   1.000000

    1             0.499954   0.500003   0.500023   0.499999   0.499998
    2             0.500046   0.499997   0.499977   0.500001   0.500002

                     16

                  1.000000

    1             0.500001
    2             0.499999

     ATOMIC SPIN POPULATION (ALPHA MINUS BETA)
       ATOM         MULL.POP.                    LOW.POP.
    1 CL            1.000000                     1.000003
    2 CL            1.000000                     0.999997


          ********* ALL ELECTRONS ********

               ----- POPULATIONS IN EACH AO -----
                             MULLIKEN      LOWDIN
              1  CL 1  S      0.77748     0.90009
              2  CL 1  S      1.18698     1.08456
              3  CL 1  S      0.90525     0.92496
              4  CL 1  S      1.05790     0.98805
              5  CL 1  S      1.04806     0.54358
              6  CL 1  S      0.95442     0.50825
              7  CL 1  X      2.46536     1.49158
              8  CL 1  Y      2.48845     1.50653
              9  CL 1  Z      2.47058     1.49431
             10  CL 1  X     -0.49909     0.29980
             11  CL 1  Y     -0.51479     0.31791
             12  CL 1  Z     -0.50280     0.30429
             13  CL 1  S     -0.07763     0.11931
             14  CL 1  X     -0.03085     0.05641
             15  CL 1  Y     -0.03437     0.06642
             16  CL 1  Z      0.05704     0.07736
             17  CL 1  X      0.31550     0.52736
             18  CL 1  Y      0.41192     0.61494
             19  CL 1  Z      0.33449     0.55189
             20  CL 1  X      0.83590     0.75341
             21  CL 1  Y      1.10451     1.01341
             22  CL 1  Z      0.91217     0.80977
             23  CL 1  X      0.40907     0.36692
             24  CL 1  Y      0.53497     0.47058
             25  CL 1  Z      0.28768     0.32314
             26  CL 1 XX      0.02618     0.29917
             27  CL 1 YY      0.01232     0.28672
             28  CL 1 ZZ      0.04983     0.28455
             29  CL 1 XY      0.00000     0.00000
             30  CL 1 XZ      0.00640     0.00681
             31  CL 1 YZ      0.00702     0.00793
             32  CL 2  S      0.77748     0.90009
             33  CL 2  S      1.18698     1.08456
             34  CL 2  S      0.90525     0.92496
             35  CL 2  S      1.05790     0.98805
             36  CL 2  S      1.04807     0.54358
             37  CL 2  S      0.95443     0.50826
             38  CL 2  X      2.46536     1.49158
             39  CL 2  Y      2.48845     1.50653
             40  CL 2  Z      2.47058     1.49431
             41  CL 2  X     -0.49909     0.29980
             42  CL 2  Y     -0.51479     0.31791
             43  CL 2  Z     -0.50280     0.30429
             44  CL 2  S     -0.07762     0.11931
             45  CL 2  X     -0.03085     0.05641
             46  CL 2  Y     -0.03436     0.06642
             47  CL 2  Z      0.05713     0.07737
             48  CL 2  X      0.31550     0.52736
             49  CL 2  Y      0.41192     0.61494
             50  CL 2  Z      0.33449     0.55189
             51  CL 2  X      0.83590     0.75341
             52  CL 2  Y      1.10451     1.01341
             53  CL 2  Z      0.91217     0.80977
             54  CL 2  X      0.40907     0.36692
             55  CL 2  Y      0.53497     0.47058
             56  CL 2  Z      0.28767     0.32314
             57  CL 2 XX      0.02617     0.29916
             58  CL 2 YY      0.01231     0.28671
             59  CL 2 ZZ      0.04982     0.28455
             60  CL 2 XY      0.00000     0.00000
             61  CL 2 XZ      0.00640     0.00681
             62  CL 2 YZ      0.00702     0.00793

          ----- MULLIKEN ATOMIC OVERLAP POPULATIONS -----
          (OFF-DIAGONAL ELEMENTS NEED TO BE MULTIPLIED BY 2)

             1           2

    1   18.2877027
    2   -1.2877482  18.2877936

          TOTAL MULLIKEN AND LOWDIN ATOMIC POPULATIONS
       ATOM         MULL.POP.    CHARGE          LOW.POP.     CHARGE
    1 CL           16.999955    0.000045        16.999997    0.000003
    2 CL           17.000045   -0.000045        17.000003   -0.000003

          -------------------------------
          BOND ORDER AND VALENCE ANALYSIS     BOND ORDER THRESHOLD=0.050
          -------------------------------

                   BOND                       BOND                       BOND
  ATOM PAIR DIST  ORDER      ATOM PAIR DIST  ORDER      ATOM PAIR DIST  ORDER
    1   2  1.988  0.866

                       TOTAL       BONDED        FREE
      ATOM            VALENCE     VALENCE     VALENCE
    1 CL                1.395       0.866       0.529
    2 CL                1.395       0.866       0.529

          -----------------------------------------
          ATOMIC SPIN DENSITY AT THE NUCLEUS (A.U.)
          -----------------------------------------
                            SPIN DENS    ALPHA DENS     BETA DENS
    1  CL          17.0     0.6426597    1561.75356    1561.11091
    2  CL          17.0     0.6426425    1561.75354    1561.11089

          ---------------------
          ELECTROSTATIC MOMENTS
          ---------------------

 POINT   1           X           Y           Z (BOHR)    CHARGE
                 0.000000    0.000000    0.000000        0.00 (A.U.)
         DX          DY          DZ         /D/  (DEBYE)
     0.000000    0.000000   -0.000035    0.000035
 ...... END OF PROPERTY EVALUATION ......
 STEP CPU TIME =     0.01 TOTAL CPU TIME =          2.9 (      0.0 MIN)
 TOTAL WALL CLOCK TIME=          2.9 SECONDS, CPU UTILIZATION IS   100.00%
               580000  WORDS OF DYNAMIC MEMORY USED
 EXECUTION OF GAMESS TERMINATED NORMALLY Fri Dec 13 16:25:21 2019
 DDI: 263640 bytes (0.3 MB / 0 MWords) used by master data server.

 ----------------------------------------
 CPU timing information for all processes
 ========================================
 0: 2.836 + 0.32 = 2.868
 ----------------------------------------
 ddikick.x: exited gracefully.
----- accounting info -----
Files used on the master node amlan-PT-3420 were:
-rw-rw-r-- 1 akroy akroy  128335 Dec 13 16:25 /tmp/cl2_b3lyp.dat
-rw-rw-r-- 1 akroy akroy     310 Dec 13 16:25 /tmp/cl2_b3lyp.F05
-rw-rw-r-- 1 akroy akroy 5220464 Dec 13 16:25 /tmp/cl2_b3lyp.F08
-rw-rw-r-- 1 akroy akroy 1930480 Dec 13 16:25 /tmp/cl2_b3lyp.F10
Fri Dec 13 16:25:24 IST 2019
0.0u 0.0s 0:05.93 0.3% 0+0k 0+16io 0pf+0w
