----- GAMESS execution script 'rungms' -----
This job is running on host amlan-PT-3420
under operating system Linux at Tue Sep 3 14:44:21 IST 2019
Available scratch disk space (Kbyte units) at beginning of the job is
Filesystem      1K-blocks     Used  Available Use% Mounted on
/dev/sda3      1916812448 61002368 1758418568   4% /
GAMESS temporary binary files will be written to /tmp
GAMESS supplementary output files will be written to /tmp
Copying input file charge_beril.inp to your run's scratch directory...

 Distributed Data Interface kickoff program.
 Initiating 1 compute processes on 1 nodes to run the following command:
 /home/akroy/gamess/gamess.01.x charge_beril 

          ******************************************************
          *         GAMESS VERSION = 30 SEP 2018 (R3)         *
          *             FROM IOWA STATE UNIVERSITY             *
          * M.W.SCHMIDT, K.K.BALDRIDGE, J.A.BOATZ, S.T.ELBERT, *
          *   M.S.GORDON, J.H.JENSEN, S.KOSEKI, N.MATSUNAGA,   *
          *          K.A.NGUYEN, S.J.SU, T.L.WINDUS,           *
          *       TOGETHER WITH M.DUPUIS, J.A.MONTGOMERY       *
          *         J.COMPUT.CHEM.  14, 1347-1363(1993)        *
          **************** 64 BIT LINUX VERSION ****************

  SINCE 1993, STUDENTS AND POSTDOCS WORKING AT IOWA STATE UNIVERSITY
  AND ALSO IN THEIR VARIOUS JOBS AFTER LEAVING ISU HAVE MADE IMPORTANT
  CONTRIBUTIONS TO THE CODE:
     IVANA ADAMOVIC, CHRISTINE AIKENS, YURI ALEXEEV, POOJA ARORA,
     ANDREY ASADCHEV, ROB BELL, PRADIPTA BANDYOPADHYAY, JONATHAN BENTZ,
     BRETT BODE, KURT BRORSEN, CALEB CARLIN, GALINA CHABAN, WEI CHEN,
     CHEOL HO CHOI, PAUL DAY, ALBERT DEFUSCO, NUWAN DESILVA, TIM DUDLEY,
     DMITRI FEDOROV, ALEX FINDLATER, GRAHAM FLETCHER, MARK FREITAG,
     KURT GLAESEMANN, ANASTASIA GUNINA,
     DAN KEMP, GRANT MERRILL, NORIYUKI MINEZAWA, JONATHAN MULLIN,
     TAKESHI NAGATA, SEAN NEDD, HEATHER NETZLOFF, BOSILJKA NJEGIC, RYAN OLSON,
     MIKE PAK, BUU PHAM,
     SPENCER PRUITT, LUKE ROSKOP, JIM SHOEMAKER, LYUDMILA SLIPCHENKO,
     TONY SMITH, SAROM SOK LEANG, JIE SONG, TETSUYA TAKETSUGU, SIMON WEBB,
     PENG XU, SOOHAENG YOO, FEDERICO ZAHARIEV

  ADDITIONAL CODE HAS BEEN PROVIDED BY COLLABORATORS IN OTHER GROUPS:
     IOWA STATE UNIVERSITY:
          JOE IVANIC, AARON WEST, LAIMUTIS BYTAUTAS, KLAUS RUEDENBERG
     UNIVERSITY OF TOKYO: KIMIHIKO HIRAO, TAKAHITO NAKAJIMA,
          TAKAO TSUNEDA, MUNEAKI KAMIYA, SUSUMU YANAGISAWA,
          KIYOSHI YAGI, MAHITO CHIBA, SEIKEN TOKURA, NAOAKI KAWAKAMI
     UNIVERSITY OF AARHUS: FRANK JENSEN
     UNIVERSITY OF IOWA: VISVALDAS KAIRYS, HUI LI
     NATIONAL INST. OF STANDARDS AND TECHNOLOGY: WALT STEVENS, DAVID GARMER
     UNIVERSITY OF PISA: BENEDETTA MENNUCCI, JACOPO TOMASI
     UNIVERSITY OF MEMPHIS: HENRY KURTZ, PRAKASHAN KORAMBATH
     UNIVERSITY OF ALBERTA: TOBY ZENG, MARIUSZ KLOBUKOWSKI
     UNIVERSITY OF NEW ENGLAND: MARK SPACKMAN
     MIE UNIVERSITY: HIROAKI UMEDA
     NAT. INST. OF ADVANCED INDUSTRIAL SCIENCE AND TECHNOLOGY: KAZUO KITAURA
     MICHIGAN STATE UNIVERSITY:
          KAROL KOWALSKI, MARTA WLOCH, JEFFREY GOUR, JESSE LUTZ,
          WEI LI, JUN SHEN, J. EMILIANO DEUSTUA, PIOTR PIECUCH
     UNIVERSITY OF MINNESOTA:
          YINAN SHU
     UNIVERSITY OF SILESIA: MONIKA MUSIAL, STANISLAW KUCHARSKI
     FACULTES UNIVERSITAIRES NOTRE-DAME DE LA PAIX:
          OLIVIER QUINET, BENOIT CHAMPAGNE
     UNIVERSITY OF CALIFORNIA - SANTA BARBARA: BERNARD KIRTMAN
     INSTITUTE FOR MOLECULAR SCIENCE:
          KAZUYA ISHIMURA, MICHIO KATOUDA, AND SHIGERU NAGASE
     UNIVERSITY OF NOTRE DAME: ANNA POMOGAEVA, DAN CHIPMAN
     KYUSHU UNIVERSITY:
          HARUYUKI NAKANO,
          FENG LONG GU, JACEK KORCHOWIEC, MARCIN MAKOWSKI, AND YURIKO AOKI,
          HIROTOSHI MORI AND EISAKU MIYOSHI
     PENNSYLVANIA STATE UNIVERSITY:
          TZVETELIN IORDANOV, CHET SWALINA, JONATHAN SKONE,
          SHARON HAMMES-SCHIFFER
     WASEDA UNIVERSITY:
          MASATO KOBAYASHI, TOMOKO AKAMA, TSUGUKI TOUMA,
          TAKESHI YOSHIKAWA, YASUHIRO IKABATA, JUNJI SEINO,
          YUYA NAKAJIMA, HIROMI NAKAI
     NANJING UNIVERSITY: SHUHUA LI
     UNIVERSITY OF NEBRASKA:
          PEIFENG SU, DEJUN SI, NANDUN THELLAMUREGE, YALI WANG, HUI LI
     UNIVERSITY OF ZURICH: ROBERTO PEVERATI, KIM BALDRIDGE
     N. COPERNICUS UNIVERSITY AND JACKSON STATE UNIVERSITY:
          MARIA BARYSZ
     UNIVERSITY OF COPENHAGEN: Jimmy Kromann, CASPER STEINMANN
     TOKYO INSTITUTE OF TECHNOLOGY: HIROYA NAKATA
     NAGOYA UNIVERSITY: YOSHIO NISHIMOTO, STEPHAN IRLE
     MOSCOW STATE UNIVERSITY: VLADIMIR MIRONOV

 EXECUTION OF GAMESS BEGUN Tue Sep  3 14:44:21 2019

            ECHO OF THE FIRST FEW INPUT CARDS -
 INPUT CARD>!   File created by the GAMESS Input Deck Generator Plugin for Avogadro         
 INPUT CARD> $BASIS GBASIS=N311 NGAUSS=6 NDFUNC=1 NPFUNC=1 DIFFSP=.TRUE. DIFFS=.TRUE. $END  
 INPUT CARD> $CONTRL SCFTYP=UHF RUNTYP=ENERGY DFTTYP=B3LYP ICHARG=2 MULT=1 $END             
 INPUT CARD>                                                                                
 INPUT CARD> $DATA                                                                          
 INPUT CARD>Title                                                                           
 INPUT CARD>C1                                                                              
 INPUT CARD>Be     4.0     0.00000     0.00000     0.00000                                  
 INPUT CARD> $END                                                                           
    1000000 WORDS OF MEMORY AVAILABLE

     BASIS OPTIONS
     -------------
     GBASIS=N311         IGAUSS=       6      POLAR=POPN311 
     NDFUNC=       1     NFFUNC=       0     DIFFSP=       T
     NPFUNC=       1      DIFFS=       T     BASNAM=        


     RUN TITLE
     ---------
 Title                                                                           

 THE POINT GROUP OF THE MOLECULE IS C1      
 THE ORDER OF THE PRINCIPAL AXIS IS     0

 ATOM      ATOMIC                      COORDINATES (BOHR)
           CHARGE         X                   Y                   Z
 BE          4.0     0.0000000000        0.0000000000        0.0000000000

          INTERNUCLEAR DISTANCES (ANGS.)
          ------------------------------

                1 BE    

   1 BE      0.0000000  

  * ... LESS THAN  3.000


     ATOMIC BASIS SET
     ----------------
 THE CONTRACTED PRIMITIVE FUNCTIONS HAVE BEEN UNNORMALIZED
 THE CONTRACTED BASIS FUNCTIONS ARE NOW NORMALIZED TO UNITY

  SHELL TYPE  PRIMITIVE        EXPONENT          CONTRACTION COEFFICIENT(S)

 BE        

      1   S       1          1682.8000000    0.002285740532
      1   S       2           251.7150000    0.017593804095
      1   S       3            57.4116000    0.086331520094
      1   S       4            16.5171000    0.281835065598
      1   S       5             4.8536400    0.640594149100
      1   S       6             0.6268630    0.144467033625

      2   L       7             8.3093800    0.108621032318    0.036134403234
      2   L       8             1.7407500    0.927301275900    0.216958019416
      2   L       9             0.4858160   -0.002971690884    0.841839075337

      3   L      10             0.1636130    1.000000000000    1.000000000000

      4   L      11             0.0567285    1.000000000000    1.000000000000

      5   L      12             0.0207000    1.000000000000    1.000000000000

      6   D      13             0.2550000    1.000000000000

 TOTAL NUMBER OF BASIS SET SHELLS             =    6
 NUMBER OF CARTESIAN GAUSSIAN BASIS FUNCTIONS =   23
 NUMBER OF ELECTRONS                          =    2
 CHARGE OF MOLECULE                           =    2
 SPIN MULTIPLICITY                            =    1
 NUMBER OF OCCUPIED ORBITALS (ALPHA)          =    1
 NUMBER OF OCCUPIED ORBITALS (BETA )          =    1
 TOTAL NUMBER OF ATOMS                        =    1
 THE NUCLEAR REPULSION ENERGY IS        0.0000000000

 THIS MOLECULE IS RECOGNIZED AS BEING LINEAR,
 ORBITAL LZ DEGENERACY TOLERANCE ETOLLZ= 1.00E-06

     LEBEDEV GRID-BASED DFT OPTIONS
     ------------------------------
     DFTTYP=B3LYP   
     NRAD  =      96     NLEB  =     302
     NRAD0 =      24     NLEB0 =     110
     SWOFF =    5.00E-03 (PURE SCF -> DFT)
     SWITCH=    3.00E-04 (COARSE -> TIGHT GRID)
     THRESH=    0.00E+00 GTHRE=    1.00E+00

 GRIMME'S EMPIRICAL DISPERSION CORRECTION= F

     $CONTRL OPTIONS
     ---------------
 SCFTYP=UHF          RUNTYP=ENERGY       EXETYP=RUN     
 MPLEVL=       0     CITYP =NONE         CCTYP =NONE         VBTYP =NONE    
 DFTTYP=B3LYP        TDDFT =NONE    
 MULT  =       1     ICHARG=       2     NZVAR =       0     COORD =UNIQUE  
 PP    =NONE         RELWFN=NONE         LOCAL =NONE         NUMGRD=       F
 ISPHER=      -1     NOSYM =       0     MAXIT =      30     UNITS =ANGS    
 PLTORB=       F     MOLPLT=       F     AIMPAC=       F     FRIEND=        
 NPRINT=       7     IREST =       0     GEOM  =INPUT   
 NORMF =       0     NORMP =       0     ITOL  =      20     ICUT  =       9
 INTTYP=BEST         GRDTYP=BEST         QMTTOL= 1.0E-06

     $SYSTEM OPTIONS
     ---------------
  REPLICATED MEMORY=     1000000 WORDS (ON EVERY NODE).
 DISTRIBUTED MEMDDI=           0 MILLION WORDS IN AGGREGATE,
 MEMDDI DISTRIBUTED OVER   1 PROCESSORS IS           0 WORDS/PROCESSOR.
 TOTAL MEMORY REQUESTED ON EACH PROCESSOR=     1000000 WORDS.
 TIMLIM=      525600.00 MINUTES, OR     365.0 DAYS.
 PARALL= F  BALTYP=  DLB     KDIAG=    0  COREFL= F
 MXSEQ2=     300 MXSEQ3=     150  mem10=         0

          ----------------
          PROPERTIES INPUT
          ----------------

     MOMENTS            FIELD           POTENTIAL          DENSITY
 IEMOM =       1   IEFLD =       0   IEPOT =       0   IEDEN =       0
 WHERE =COMASS     WHERE =NUCLEI     WHERE =NUCLEI     WHERE =NUCLEI  
 OUTPUT=BOTH       OUTPUT=BOTH       OUTPUT=BOTH       OUTPUT=BOTH    
 IEMINT=       0   IEFINT=       0                     IEDINT=       0
                                                       MORB  =       0
          EXTRAPOLATION IN EFFECT
          DIIS IN EFFECT
          DIIS or SOSCF will be reset if energy rises
 ORBITAL PRINTING OPTION: NPREO=     1    23     2     1

     -------------------------------
     INTEGRAL TRANSFORMATION OPTIONS
     -------------------------------
     NWORD  =            0
     CUTOFF = 1.0E-09     MPTRAN =       0
     DIRTRF =       F     AOINTS =DUP     

          ----------------------
          INTEGRAL INPUT OPTIONS
          ----------------------
 NOPK  =       1 NORDER=       0 SCHWRZ=       F

     ------------------------------------------
     THE POINT GROUP IS C1 , NAXIS= 0, ORDER= 1
     ------------------------------------------

     DIMENSIONS OF THE SYMMETRY SUBSPACES ARE
 A   =   23

 ..... DONE SETTING UP THE RUN .....
 STEP CPU TIME =     0.00 TOTAL CPU TIME =          0.0 (      0.0 MIN)
 TOTAL WALL CLOCK TIME=          0.0 SECONDS, CPU UTILIZATION IS   100.00%

          ********************
          1 ELECTRON INTEGRALS
          ********************
 ...... END OF ONE-ELECTRON INTEGRALS ......
 STEP CPU TIME =     0.00 TOTAL CPU TIME =          0.0 (      0.0 MIN)
 TOTAL WALL CLOCK TIME=          0.0 SECONDS, CPU UTILIZATION IS   100.00%

          -------------
          GUESS OPTIONS
          -------------
          GUESS =HUCKEL            NORB  =       0          NORDER=       0
          MIX   =       F          PRTMO =       F          PUNMO =       F
          TOLZ  = 1.0E-08          TOLE  = 1.0E-05
          SYMDEN=       F          PURIFY=       F

 INITIAL GUESS ORBITALS GENERATED BY HUCKEL   ROUTINE.
 HUCKEL GUESS REQUIRES      4740 WORDS.

 SYMMETRIES FOR INITIAL GUESS ORBITALS FOLLOW.  ALPHA SET(S).
     1 ORBITALS ARE OCCUPIED (    1 CORE ORBITALS).
     2=A        3=A        4=A        5=A        6=A        7=A        8=A   
     9=A       10=A       11=A   

 SYMMETRIES FOR INITIAL GUESS ORBITALS FOLLOW.   BETA SET(S).
     1 ORBITALS ARE OCCUPIED (    1 CORE ORBITALS).
     2=A        3=A        4=A        5=A        6=A        7=A        8=A   
     9=A       10=A       11=A   
 ...... END OF INITIAL ORBITAL SELECTION ......
 STEP CPU TIME =     0.00 TOTAL CPU TIME =          0.0 (      0.0 MIN)
 TOTAL WALL CLOCK TIME=          0.0 SECONDS, CPU UTILIZATION IS   100.00%

                    ----------------------
                    AO INTEGRAL TECHNOLOGY
                    ----------------------
     S,P,L SHELL ROTATED AXIS INTEGRALS, REPROGRAMMED BY
        KAZUYA ISHIMURA (IMS) AND JOSE SIERRA (SYNSTAR).
     S,P,D,L SHELL ROTATED AXIS INTEGRALS PROGRAMMED BY
        KAZUYA ISHIMURA (INSTITUTE FOR MOLECULAR SCIENCE).
     S,P,D,F,G SHELL TO TOTAL QUARTET ANGULAR MOMENTUM SUM 5,
        ERIC PROGRAM BY GRAHAM FLETCHER (ELORET AND NASA ADVANCED
        SUPERCOMPUTING DIVISION, AMES RESEARCH CENTER).
     S,P,D,F,G,L SHELL GENERAL RYS QUADRATURE PROGRAMMED BY
        MICHEL DUPUIS (PACIFIC NORTHWEST NATIONAL LABORATORY).

          --------------------
          2 ELECTRON INTEGRALS
          --------------------

 THE -PK- OPTION IS OFF, THE INTEGRALS ARE NOT IN SUPERMATRIX FORM.
 STORING   15000 INTEGRALS/RECORD ON DISK, USING 12 BYTES/INTEGRAL.
 TWO ELECTRON INTEGRAL EVALUATION REQUIRES   90417 WORDS OF MEMORY.
 II,JST,KST,LST =  1  1  1  1 NREC =         1 INTLOC =    1
 II,JST,KST,LST =  2  1  1  1 NREC =         1 INTLOC =    2
 II,JST,KST,LST =  3  1  1  1 NREC =         1 INTLOC =   34
 II,JST,KST,LST =  4  1  1  1 NREC =         1 INTLOC =  214
 II,JST,KST,LST =  5  1  1  1 NREC =         1 INTLOC =  776
 II,JST,KST,LST =  6  1  1  1 NREC =         1 INTLOC = 2074
 TOTAL NUMBER OF NONZERO TWO-ELECTRON INTEGRALS =                5928
          1 INTEGRAL RECORDS WERE STORED ON DISK FILE  8.
  ...... END OF TWO-ELECTRON INTEGRALS .....
 STEP CPU TIME =     0.00 TOTAL CPU TIME =          0.0 (      0.0 MIN)
 TOTAL WALL CLOCK TIME=          0.0 SECONDS, CPU UTILIZATION IS     0.00%

          ---------------------------
              U-B3LYP SCF CALCULATION
          ---------------------------

     NUCLEAR ENERGY =         0.0000000000
     MAXIT = 30     NPUNCH=  2     MULT=  1
     EXTRAP=T  DAMP=F  SHIFT=F  RSTRCT=F  DIIS=T  SOSCF=F
         DENSITY MATRIX CONVERGENCE THRESHOLD=  1.00E-05
     COARSE -> FINE DFT GRID SWITCH THRESHOLD=  3.00E-04 (SWITCH IN $DFT)
                   HF -> DFT SWITCH THRESHOLD=  5.00E-03 (SWOFF IN $DFT)
     MEMORY REQUIRED FOR UHF/ROHF ITERS=    109736 WORDS.

 DFT CODE IS SWITCHING FROM THE FINE GRID NRAD= 96,  NLEB=  302
                      TO THE COARSE GRID NRAD0= 24, NLEB0=  110

     EXCHANGE FUNCTIONAL   =B88&HFX   
     CORRELATION FUNCTIONAL=LYP88&VWN5
     DFT THRESHOLD         =.138E-06
     GRID CHANGE THRESHOLD =.300E-03
 FOR AN EULER-MACLAURIN QUADRATURE USING  96 RADIAL POINTS:
 SMALLEST GAUSSIAN PRIMITIVE EXPONENT=        0.0207000000 OF TYPE -P-
 ON ATOM NUMBER   1 HAS RADIAL NORMALIZATION=  1.000000
  LARGEST GAUSSIAN PRIMITIVE EXPONENT=     1682.8000000000 OF TYPE -S-
 ON ATOM NUMBER   1 HAS RADIAL NORMALIZATION=  1.000000
 DFT IS SWITCHED OFF, PERFORMING PURE SCF UNTIL SWOFF THRESHOLD IS REACHED.

 ITER EX      TOTAL ENERGY        E CHANGE  DENSITY CHANGE    DIIS ERROR
          * * *   INITIATING DIIS PROCEDURE   * * *
   1  0      -13.5906862563   -13.5906862563   0.137989539   0.469027406
   2  1      -13.6102048565    -0.0195186002   0.015555597   0.036464041
   3  2      -13.6103880497    -0.0001831932   0.000479814   0.000939530
 CONVERGED TO SWOFF, SO DFT CALCULATION IS NOW SWITCHED ON.
          * * *   INITIATING DIIS PROCEDURE   * * *
   4  3      -13.6445395760    -0.0341515263   0.035769175   0.083899867
   5  4      -13.6453551524    -0.0008155764   0.000856965   0.004326152
   6  5      -13.6453562186    -0.0000010662   0.000091456   0.000512940
 DFT CODE IS SWITCHING BACK TO THE FINE GRID
          * * *   INITIATING DIIS PROCEDURE   * * *
   7  6      -13.6453886641    -0.0000324455   0.000336761   0.000948347
   8  7      -13.6453887343    -0.0000000702   0.000004794   0.000021645
   9  8      -13.6453887344    -0.0000000000   0.000000468   0.000002607
  10  9      -13.6453887344    -0.0000000000   0.000000000   0.000000001

          -----------------
          DENSITY CONVERGED
          -----------------
     TIME TO FORM FOCK OPERATORS=       0.2 SECONDS (       0.0 SEC/ITER)
     TIME TO SOLVE SCF EQUATIONS=       0.0 SECONDS (       0.0 SEC/ITER)

 FINAL U-B3LYP ENERGY IS      -13.6453887344 AFTER  10 ITERATIONS
 DFT EXCHANGE + CORRELATION ENERGY =        -1.8508542385
 TOTAL ELECTRON NUMBER             =         1.9999997219

          --------------------
          SPIN SZ   =    0.000
          S-SQUARED =   -0.000
          --------------------

 LZ VALUE ANALYSIS FOR THE MOS
 ----------------------------------------
 MO     1 (    1) HAS LZ(WEIGHT)= 0.00(100.0%) 
 MO     2 (    2) HAS LZ(WEIGHT)= 0.00(100.0%) 
 MO     3 (    3) HAS LZ(WEIGHT)= 0.00(100.0%) 
 MO     4 (    3) HAS LZ(WEIGHT)=-1.00( 50.0%)  1.00( 50.0%) 
 MO     5 (    3) HAS LZ(WEIGHT)=-1.00( 50.0%)  1.00( 50.0%) 
 MO     6 (    4) HAS LZ(WEIGHT)= 0.00(100.0%) 
 MO     7 (    5) HAS LZ(WEIGHT)= 0.00(100.0%) 
 MO     8 (    5) HAS LZ(WEIGHT)=-1.00( 50.0%)  1.00( 50.0%) 
 MO     9 (    5) HAS LZ(WEIGHT)=-1.00( 50.0%)  1.00( 50.0%) 
 MO    10 (    6) HAS LZ(WEIGHT)= 0.00(100.0%) 
 MO    11 (    7) HAS LZ(WEIGHT)=-0.00(100.0%) 
 MO    12 (    7) HAS LZ(WEIGHT)=-1.00( 50.0%)  1.00( 50.0%) 
 MO    13 (    7) HAS LZ(WEIGHT)=-1.00( 50.0%)  1.00( 50.0%) 
 MO    14 (    8) HAS LZ(WEIGHT)=-2.00(  6.5%)  0.00( 86.9%)  2.00(  6.5%) 
 MO    15 (    8) HAS LZ(WEIGHT)=-2.00( 43.5%)  0.00( 13.1%)  2.00( 43.5%) 
 MO    16 (    8) HAS LZ(WEIGHT)=-2.00( 49.8%)  2.00( 49.8%) 
 MO    17 (    8) HAS LZ(WEIGHT)=-1.00( 49.8%)  1.00( 49.8%) 
 MO    18 (    8) HAS LZ(WEIGHT)=-1.00( 50.0%)  1.00( 50.0%) 
 MO    19 (    9) HAS LZ(WEIGHT)=-0.00(100.0%) 
 MO    20 (    9) HAS LZ(WEIGHT)=-1.00( 50.0%)  1.00( 50.0%) 
 MO    21 (    9) HAS LZ(WEIGHT)=-1.00( 50.0%)  1.00( 50.0%) 
 MO    22 (   10) HAS LZ(WEIGHT)= 0.00(100.0%) 
 MO    23 (   11) HAS LZ(WEIGHT)= 0.00(100.0%) 

  ----- ALPHA SET ----- 

          ------------
          EIGENVECTORS
          ------------

                      1          2          3          4          5
                   -5.0384    -0.7877    -0.6489    -0.6489    -0.6489
                     A          A          A          A          A   
    1  BE 1  S    0.600549  -0.165785   0.000000  -0.000000  -0.000000
    2  BE 1  S    0.434740  -0.284671   0.000000  -0.000000  -0.000000
    3  BE 1  X   -0.000000  -0.000000  -0.000000   0.000000   0.554872
    4  BE 1  Y   -0.000000  -0.000000  -0.000000   0.554872  -0.000000
    5  BE 1  Z   -0.000000  -0.000000   0.554872   0.000000   0.000000
    6  BE 1  S    0.019983   1.301325   0.000000  -0.000000  -0.000000
    7  BE 1  X   -0.000000  -0.000000  -0.000000   0.000000   0.505269
    8  BE 1  Y   -0.000000  -0.000000  -0.000000   0.505269  -0.000000
    9  BE 1  Z   -0.000000  -0.000000   0.505269   0.000000   0.000000
   10  BE 1  S    0.002765   0.056587   0.000000  -0.000000  -0.000000
   11  BE 1  X   -0.000000  -0.000000  -0.000000   0.000000   0.070941
   12  BE 1  Y   -0.000000  -0.000000  -0.000000   0.070941  -0.000000
   13  BE 1  Z   -0.000000  -0.000000   0.070941   0.000000   0.000000
   14  BE 1  S   -0.001155   0.009035   0.000000  -0.000000  -0.000000
   15  BE 1  X   -0.000000  -0.000000   0.000000  -0.000000  -0.002210
   16  BE 1  Y   -0.000000  -0.000000   0.000000  -0.002210  -0.000000
   17  BE 1  Z   -0.000000  -0.000000  -0.002210  -0.000000  -0.000000
   18  BE 1 XX   -0.008025  -0.125683   0.000000  -0.000000  -0.000000
   19  BE 1 YY   -0.008025  -0.125683   0.000000  -0.000000  -0.000000
   20  BE 1 ZZ   -0.008025  -0.125683   0.000000  -0.000000  -0.000000
   21  BE 1 XY   -0.000000  -0.000000   0.000000  -0.000000  -0.000000
   22  BE 1 XZ   -0.000000  -0.000000   0.000000  -0.000000  -0.000000
   23  BE 1 YZ   -0.000000  -0.000000   0.000000  -0.000000  -0.000000

                      6          7          8          9         10
                   -0.2932    -0.2572    -0.2572    -0.2572    -0.1287
                     A          A          A          A          A   
    1  BE 1  S   -0.077153   0.000000   0.000000  -0.000000   0.071894
    2  BE 1  S   -0.138887   0.000000   0.000000  -0.000000   0.122635
    3  BE 1  X   -0.000000   0.000000  -0.000000  -0.306762  -0.000000
    4  BE 1  Y   -0.000000   0.000000  -0.306763   0.000000  -0.000000
    5  BE 1  Z   -0.000000  -0.306763  -0.000000  -0.000000  -0.000000
    6  BE 1  S    1.214679   0.000000   0.000000  -0.000000  -1.643374
    7  BE 1  X   -0.000000   0.000000  -0.000000  -0.326697  -0.000000
    8  BE 1  Y   -0.000000   0.000000  -0.326696   0.000000  -0.000000
    9  BE 1  Z   -0.000000  -0.326696  -0.000000  -0.000000  -0.000000
   10  BE 1  S   -0.859558   0.000000   0.000000  -0.000000   3.232164
   11  BE 1  X   -0.000000  -0.000000   0.000000   0.824321  -0.000000
   12  BE 1  Y   -0.000000  -0.000000   0.824321  -0.000000  -0.000000
   13  BE 1  Z   -0.000000   0.824321   0.000000   0.000000  -0.000000
   14  BE 1  S   -0.631845   0.000000   0.000000  -0.000000  -2.113683
   15  BE 1  X   -0.000000  -0.000000   0.000000   0.380936  -0.000000
   16  BE 1  Y   -0.000000  -0.000000   0.380936  -0.000000  -0.000000
   17  BE 1  Z   -0.000000   0.380936   0.000000   0.000000  -0.000000
   18  BE 1 XX   -0.054076   0.000000   0.000000  -0.000000   0.007547
   19  BE 1 YY   -0.054076   0.000000   0.000000  -0.000000   0.007547
   20  BE 1 ZZ   -0.054076   0.000000   0.000000  -0.000000   0.007547
   21  BE 1 XY   -0.000000   0.000000   0.000000  -0.000000  -0.000000
   22  BE 1 XZ   -0.000000   0.000000   0.000000  -0.000000  -0.000000
   23  BE 1 YZ   -0.000000   0.000000   0.000000  -0.000000  -0.000000

                     11         12         13         14         15
                   -0.1260    -0.1260    -0.1260    -0.0273    -0.0273
                     A          A          A          A          A   
    1  BE 1  S    0.000000  -0.000000   0.000000   0.000000   0.000000
    2  BE 1  S    0.000000  -0.000000   0.000000   0.000000   0.000000
    3  BE 1  X    0.000000  -0.000000  -0.257102   0.000000   0.000000
    4  BE 1  Y    0.000000  -0.257102   0.000000   0.000000   0.000000
    5  BE 1  Z   -0.257102  -0.000000  -0.000000   0.000000   0.000000
    6  BE 1  S    0.000000  -0.000000   0.000000   0.000000   0.000000
    7  BE 1  X    0.000000  -0.000000  -0.357600   0.000000   0.000000
    8  BE 1  Y    0.000000  -0.357600   0.000000   0.000000   0.000000
    9  BE 1  Z   -0.357600  -0.000000  -0.000000   0.000000   0.000000
   10  BE 1  S    0.000000  -0.000000   0.000000   0.000000   0.000000
   11  BE 1  X   -0.000000   0.000000   1.652257   0.000000   0.000000
   12  BE 1  Y   -0.000000   1.652257  -0.000000   0.000000   0.000000
   13  BE 1  Z    1.652257   0.000000   0.000000   0.000000   0.000000
   14  BE 1  S    0.000000  -0.000000   0.000000   0.000000   0.000000
   15  BE 1  X    0.000000  -0.000000  -1.525426   0.000000   0.000000
   16  BE 1  Y    0.000000  -1.525426   0.000000   0.000000   0.000000
   17  BE 1  Z   -1.525426  -0.000000  -0.000000   0.000000   0.000000
   18  BE 1 XX    0.000000  -0.000000   0.000000  -0.153276   0.988183
   19  BE 1 YY    0.000000  -0.000000   0.000000  -0.779154  -0.626833
   20  BE 1 ZZ    0.000000  -0.000000   0.000000   0.932430  -0.361351
   21  BE 1 XY    0.000000  -0.000000   0.000000   0.000000   0.000000
   22  BE 1 XZ    0.000000  -0.000000   0.000000  -0.000000  -0.000000
   23  BE 1 YZ    0.000000  -0.000000   0.000000  -0.000000  -0.000000

                     16         17         18         19         20
                   -0.0273    -0.0273    -0.0273     0.3430     0.3430
                     A          A          A          A          A   
    1  BE 1  S   -0.000000   0.000000  -0.000000   0.000000   0.000000
    2  BE 1  S   -0.000000   0.000000  -0.000000   0.000000   0.000000
    3  BE 1  X   -0.000000   0.000000  -0.000000  -0.000000  -0.000000
    4  BE 1  Y   -0.000000   0.000000  -0.000000   0.000000  -1.265324
    5  BE 1  Z   -0.000000   0.000000  -0.000000  -1.265324  -0.000000
    6  BE 1  S   -0.000000   0.000000  -0.000000   0.000000   0.000000
    7  BE 1  X   -0.000000   0.000000  -0.000000   0.000000   0.000000
    8  BE 1  Y   -0.000000   0.000000  -0.000000  -0.000000   2.072704
    9  BE 1  Z   -0.000000   0.000000  -0.000000   2.072704   0.000000
   10  BE 1  S   -0.000000   0.000000  -0.000000   0.000000   0.000000
   11  BE 1  X   -0.000000   0.000000  -0.000000  -0.000000  -0.000000
   12  BE 1  Y   -0.000000   0.000000  -0.000000   0.000000  -1.587269
   13  BE 1  Z   -0.000000   0.000000  -0.000000  -1.587269  -0.000000
   14  BE 1  S   -0.000000   0.000000  -0.000000   0.000000   0.000000
   15  BE 1  X   -0.000000   0.000000  -0.000000   0.000000   0.000000
   16  BE 1  Y   -0.000000   0.000000  -0.000000  -0.000000   0.619948
   17  BE 1  Z   -0.000000   0.000000  -0.000000   0.619948   0.000000
   18  BE 1 XX   -0.000000   0.000000   0.000000   0.000000   0.000000
   19  BE 1 YY    0.000000  -0.000000  -0.000000   0.000000   0.000000
   20  BE 1 ZZ    0.000000   0.000000   0.000000   0.000000   0.000000
   21  BE 1 XY    0.997778  -0.059400  -0.030177   0.000000   0.000000
   22  BE 1 XZ    0.014693  -0.245606   0.969258   0.000000   0.000000
   23  BE 1 YZ    0.064986   0.967548   0.244188   0.000000   0.000000

                     21         22         23
                    0.3430     0.5862     8.4648
                     A          A          A   
    1  BE 1  S    0.000000  -0.180235  -1.913141
    2  BE 1  S    0.000000  -0.625538   2.589181
    3  BE 1  X   -1.265324  -0.000000  -0.000000
    4  BE 1  Y    0.000000  -0.000000  -0.000000
    5  BE 1  Z    0.000000  -0.000000  -0.000000
    6  BE 1  S    0.000000   2.403872  -2.097975
    7  BE 1  X    2.072704  -0.000000  -0.000000
    8  BE 1  Y   -0.000000  -0.000000  -0.000000
    9  BE 1  Z   -0.000000  -0.000000  -0.000000
   10  BE 1  S    0.000000   1.975188  -0.410435
   11  BE 1  X   -1.587269  -0.000000  -0.000000
   12  BE 1  Y    0.000000  -0.000000  -0.000000
   13  BE 1  Z    0.000000  -0.000000  -0.000000
   14  BE 1  S    0.000000  -0.738533   0.162159
   15  BE 1  X    0.619948  -0.000000  -0.000000
   16  BE 1  Y   -0.000000  -0.000000  -0.000000
   17  BE 1  Z   -0.000000  -0.000000  -0.000000
   18  BE 1 XX    0.000000  -1.672908   0.912627
   19  BE 1 YY    0.000000  -1.672908   0.912627
   20  BE 1 ZZ    0.000000  -1.672908   0.912627
   21  BE 1 XY    0.000000  -0.000000  -0.000000
   22  BE 1 XZ    0.000000  -0.000000  -0.000000
   23  BE 1 YZ    0.000000  -0.000000  -0.000000

 LZ VALUE ANALYSIS FOR THE MOS
 ----------------------------------------
 MO     1 (    1) HAS LZ(WEIGHT)= 0.00(100.0%) 
 MO     2 (    2) HAS LZ(WEIGHT)= 0.00(100.0%) 
 MO     3 (    3) HAS LZ(WEIGHT)= 0.00(100.0%) 
 MO     4 (    3) HAS LZ(WEIGHT)=-1.00( 50.0%)  1.00( 50.0%) 
 MO     5 (    3) HAS LZ(WEIGHT)=-1.00( 50.0%)  1.00( 50.0%) 
 MO     6 (    4) HAS LZ(WEIGHT)= 0.00(100.0%) 
 MO     7 (    5) HAS LZ(WEIGHT)=-0.00(100.0%) 
 MO     8 (    5) HAS LZ(WEIGHT)=-1.00( 50.0%)  1.00( 50.0%) 
 MO     9 (    5) HAS LZ(WEIGHT)=-1.00( 50.0%)  1.00( 50.0%) 
 MO    10 (    6) HAS LZ(WEIGHT)= 0.00(100.0%) 
 MO    11 (    7) HAS LZ(WEIGHT)=-0.00(100.0%) 
 MO    12 (    7) HAS LZ(WEIGHT)=-1.00( 50.0%)  1.00( 50.0%) 
 MO    13 (    7) HAS LZ(WEIGHT)=-1.00( 50.0%)  1.00( 50.0%) 
 MO    14 (    8) HAS LZ(WEIGHT)=-2.00(  1.8%)  0.00( 96.4%)  2.00(  1.8%) 
 MO    15 (    8) HAS LZ(WEIGHT)=-2.00( 48.2%)  0.00(  3.6%)  2.00( 48.2%) 
 MO    16 (    8) HAS LZ(WEIGHT)=-2.00( 31.9%) -1.00( 18.1%)  1.00( 18.1%)  2.00( 31.9%) 
 MO    17 (    8) HAS LZ(WEIGHT)=-2.00( 18.0%) -1.00( 32.0%)  1.00( 32.0%)  2.00( 18.0%) 
 MO    18 (    8) HAS LZ(WEIGHT)=-1.00( 50.0%)  1.00( 50.0%) 
 MO    19 (    9) HAS LZ(WEIGHT)=-0.00(100.0%) 
 MO    20 (    9) HAS LZ(WEIGHT)=-1.00( 50.0%)  1.00( 50.0%) 
 MO    21 (    9) HAS LZ(WEIGHT)=-1.00( 50.0%)  1.00( 50.0%) 
 MO    22 (   10) HAS LZ(WEIGHT)= 0.00(100.0%) 
 MO    23 (   11) HAS LZ(WEIGHT)= 0.00(100.0%) 

  ----- BETA SET ----- 

          ------------
          EIGENVECTORS
          ------------

                      1          2          3          4          5
                   -5.0384    -0.7877    -0.6489    -0.6489    -0.6489
                     A          A          A          A          A   
    1  BE 1  S    0.600549  -0.165785  -0.000000  -0.000000   0.000000
    2  BE 1  S    0.434740  -0.284671  -0.000000  -0.000000   0.000000
    3  BE 1  X   -0.000000  -0.000000  -0.000000  -0.000000   0.554872
    4  BE 1  Y   -0.000000  -0.000000  -0.000000   0.554872   0.000000
    5  BE 1  Z   -0.000000  -0.000000   0.554872   0.000000   0.000000
    6  BE 1  S    0.019983   1.301325  -0.000000  -0.000000   0.000000
    7  BE 1  X   -0.000000  -0.000000  -0.000000  -0.000000   0.505269
    8  BE 1  Y   -0.000000  -0.000000  -0.000000   0.505269   0.000000
    9  BE 1  Z   -0.000000  -0.000000   0.505269   0.000000   0.000000
   10  BE 1  S    0.002765   0.056587  -0.000000  -0.000000   0.000000
   11  BE 1  X   -0.000000  -0.000000  -0.000000  -0.000000   0.070941
   12  BE 1  Y   -0.000000  -0.000000  -0.000000   0.070941   0.000000
   13  BE 1  Z   -0.000000  -0.000000   0.070941   0.000000   0.000000
   14  BE 1  S   -0.001155   0.009035  -0.000000  -0.000000   0.000000
   15  BE 1  X   -0.000000  -0.000000  -0.000000  -0.000000  -0.002210
   16  BE 1  Y   -0.000000  -0.000000  -0.000000  -0.002210   0.000000
   17  BE 1  Z   -0.000000  -0.000000  -0.002210  -0.000000   0.000000
   18  BE 1 XX   -0.008025  -0.125683  -0.000000  -0.000000   0.000000
   19  BE 1 YY   -0.008025  -0.125683  -0.000000  -0.000000   0.000000
   20  BE 1 ZZ   -0.008025  -0.125683  -0.000000  -0.000000   0.000000
   21  BE 1 XY   -0.000000  -0.000000  -0.000000  -0.000000   0.000000
   22  BE 1 XZ   -0.000000  -0.000000  -0.000000  -0.000000   0.000000
   23  BE 1 YZ   -0.000000  -0.000000  -0.000000  -0.000000   0.000000

                      6          7          8          9         10
                   -0.2932    -0.2572    -0.2572    -0.2572    -0.1287
                     A          A          A          A          A   
    1  BE 1  S   -0.077153  -0.000000  -0.000000   0.000000   0.071894
    2  BE 1  S   -0.138887  -0.000000  -0.000000   0.000000   0.122635
    3  BE 1  X   -0.000000  -0.000000  -0.000000  -0.306762  -0.000000
    4  BE 1  Y   -0.000000   0.000000  -0.306763   0.000000  -0.000000
    5  BE 1  Z   -0.000000  -0.306763  -0.000000   0.000000  -0.000000
    6  BE 1  S    1.214679  -0.000000  -0.000000   0.000000  -1.643374
    7  BE 1  X   -0.000000  -0.000000  -0.000000  -0.326697  -0.000000
    8  BE 1  Y   -0.000000   0.000000  -0.326696   0.000000  -0.000000
    9  BE 1  Z   -0.000000  -0.326696  -0.000000   0.000000  -0.000000
   10  BE 1  S   -0.859558  -0.000000  -0.000000   0.000000   3.232164
   11  BE 1  X   -0.000000   0.000000   0.000000   0.824321  -0.000000
   12  BE 1  Y   -0.000000  -0.000000   0.824321  -0.000000  -0.000000
   13  BE 1  Z   -0.000000   0.824321   0.000000  -0.000000  -0.000000
   14  BE 1  S   -0.631845  -0.000000  -0.000000   0.000000  -2.113683
   15  BE 1  X   -0.000000   0.000000   0.000000   0.380936  -0.000000
   16  BE 1  Y   -0.000000  -0.000000   0.380936  -0.000000  -0.000000
   17  BE 1  Z   -0.000000   0.380936   0.000000  -0.000000  -0.000000
   18  BE 1 XX   -0.054076  -0.000000  -0.000000   0.000000   0.007547
   19  BE 1 YY   -0.054076  -0.000000  -0.000000   0.000000   0.007547
   20  BE 1 ZZ   -0.054076  -0.000000  -0.000000   0.000000   0.007547
   21  BE 1 XY   -0.000000  -0.000000  -0.000000   0.000000  -0.000000
   22  BE 1 XZ   -0.000000  -0.000000  -0.000000   0.000000  -0.000000
   23  BE 1 YZ   -0.000000  -0.000000  -0.000000   0.000000  -0.000000

                     11         12         13         14         15
                   -0.1260    -0.1260    -0.1260    -0.0273    -0.0273
                     A          A          A          A          A   
    1  BE 1  S   -0.000000  -0.000000  -0.000000   0.000000  -0.000000
    2  BE 1  S   -0.000000  -0.000000  -0.000000   0.000000  -0.000000
    3  BE 1  X    0.000000   0.000000  -0.257102   0.000000  -0.000000
    4  BE 1  Y    0.000000  -0.257102  -0.000000   0.000000  -0.000000
    5  BE 1  Z   -0.257102  -0.000000  -0.000000   0.000000  -0.000000
    6  BE 1  S   -0.000000  -0.000000  -0.000000   0.000000  -0.000000
    7  BE 1  X    0.000000   0.000000  -0.357600   0.000000  -0.000000
    8  BE 1  Y    0.000000  -0.357600  -0.000000   0.000000  -0.000000
    9  BE 1  Z   -0.357600  -0.000000  -0.000000   0.000000  -0.000000
   10  BE 1  S   -0.000000  -0.000000  -0.000000   0.000000  -0.000000
   11  BE 1  X   -0.000000  -0.000000   1.652257   0.000000  -0.000000
   12  BE 1  Y   -0.000000   1.652257   0.000000   0.000000  -0.000000
   13  BE 1  Z    1.652257   0.000000   0.000000   0.000000  -0.000000
   14  BE 1  S   -0.000000  -0.000000  -0.000000   0.000000  -0.000000
   15  BE 1  X    0.000000   0.000000  -1.525426   0.000000  -0.000000
   16  BE 1  Y    0.000000  -1.525426  -0.000000   0.000000  -0.000000
   17  BE 1  Z   -1.525426  -0.000000  -0.000000   0.000000  -0.000000
   18  BE 1 XX   -0.000000  -0.000000  -0.000000  -0.326035   0.945358
   19  BE 1 YY   -0.000000  -0.000000  -0.000000  -0.655686  -0.755033
   20  BE 1 ZZ   -0.000000  -0.000000  -0.000000   0.981721  -0.190325
   21  BE 1 XY   -0.000000  -0.000000  -0.000000  -0.000000  -0.000001
   22  BE 1 XZ   -0.000000  -0.000000  -0.000000  -0.000000   0.000001
   23  BE 1 YZ   -0.000000  -0.000000  -0.000000  -0.000000   0.000000

                     16         17         18         19         20
                   -0.0273    -0.0273    -0.0273     0.3430     0.3430
                     A          A          A          A          A   
    1  BE 1  S   -0.000000   0.000000  -0.000000   0.000000   0.000000
    2  BE 1  S   -0.000000   0.000000  -0.000000   0.000000   0.000000
    3  BE 1  X   -0.000000   0.000000  -0.000000  -0.000000  -0.000000
    4  BE 1  Y   -0.000000   0.000000  -0.000000   0.000000  -1.265324
    5  BE 1  Z   -0.000000   0.000000  -0.000000  -1.265324  -0.000000
    6  BE 1  S   -0.000000   0.000000  -0.000000   0.000000   0.000000
    7  BE 1  X   -0.000000   0.000000  -0.000000   0.000000   0.000000
    8  BE 1  Y   -0.000000   0.000000  -0.000000  -0.000000   2.072704
    9  BE 1  Z   -0.000000   0.000000  -0.000000   2.072704   0.000000
   10  BE 1  S   -0.000000   0.000000  -0.000000   0.000000   0.000000
   11  BE 1  X   -0.000000   0.000000  -0.000000  -0.000000  -0.000000
   12  BE 1  Y   -0.000000   0.000000  -0.000000   0.000000  -1.587269
   13  BE 1  Z   -0.000000   0.000000  -0.000000  -1.587269  -0.000000
   14  BE 1  S   -0.000000   0.000000  -0.000000   0.000000   0.000000
   15  BE 1  X   -0.000000   0.000000  -0.000000   0.000000   0.000000
   16  BE 1  Y   -0.000000   0.000000  -0.000000  -0.000000   0.619948
   17  BE 1  Z   -0.000000   0.000000  -0.000000   0.619948   0.000000
   18  BE 1 XX    0.000000  -0.000001  -0.000000   0.000000   0.000000
   19  BE 1 YY   -0.000000   0.000001   0.000000   0.000000   0.000000
   20  BE 1 ZZ    0.000000   0.000000   0.000000   0.000000   0.000000
   21  BE 1 XY    0.799128  -0.600679  -0.024079   0.000000   0.000000
   22  BE 1 XZ    0.601076   0.797697   0.048870   0.000000   0.000000
   23  BE 1 YZ   -0.010147  -0.053527   0.998515   0.000000   0.000000

                     21         22         23
                    0.3430     0.5862     8.4648
                     A          A          A   
    1  BE 1  S    0.000000  -0.180235  -1.913141
    2  BE 1  S    0.000000  -0.625538   2.589181
    3  BE 1  X   -1.265324   0.000000  -0.000000
    4  BE 1  Y    0.000000   0.000000  -0.000000
    5  BE 1  Z    0.000000   0.000000  -0.000000
    6  BE 1  S    0.000000   2.403872  -2.097975
    7  BE 1  X    2.072704   0.000000  -0.000000
    8  BE 1  Y   -0.000000   0.000000  -0.000000
    9  BE 1  Z   -0.000000   0.000000  -0.000000
   10  BE 1  S    0.000000   1.975188  -0.410435
   11  BE 1  X   -1.587269   0.000000  -0.000000
   12  BE 1  Y    0.000000   0.000000  -0.000000
   13  BE 1  Z    0.000000   0.000000  -0.000000
   14  BE 1  S    0.000000  -0.738533   0.162159
   15  BE 1  X    0.619948   0.000000  -0.000000
   16  BE 1  Y   -0.000000   0.000000  -0.000000
   17  BE 1  Z   -0.000000   0.000000  -0.000000
   18  BE 1 XX    0.000000  -1.672908   0.912627
   19  BE 1 YY    0.000000  -1.672908   0.912627
   20  BE 1 ZZ    0.000000  -1.672908   0.912627
   21  BE 1 XY    0.000000   0.000000  -0.000000
   22  BE 1 XZ    0.000000   0.000000  -0.000000
   23  BE 1 YZ    0.000000   0.000000  -0.000000
 ...... END OF UHF CALCULATION ......
 STEP CPU TIME =     0.20 TOTAL CPU TIME =          0.2 (      0.0 MIN)
 TOTAL WALL CLOCK TIME=          0.2 SECONDS, CPU UTILIZATION IS    95.24%

     ---------------------------------------------------------------------
     PROPERTIES FOR THE B3LYP    DFT FUNCTIONAL (UHF  TYPE) DENSITY MATRIX
     ---------------------------------------------------------------------

          -----------------
          ENERGY COMPONENTS
          -----------------

         WAVEFUNCTION NORMALIZATION =       1.0000000000

                ONE ELECTRON ENERGY =     -15.8783427515
                TWO ELECTRON ENERGY =       2.2329540171
           NUCLEAR REPULSION ENERGY =       0.0000000000
                                      ------------------
                       TOTAL ENERGY =     -13.6453887344

 ELECTRON-ELECTRON POTENTIAL ENERGY =       2.2329540171
  NUCLEUS-ELECTRON POTENTIAL ENERGY =     -29.4556966089
   NUCLEUS-NUCLEUS POTENTIAL ENERGY =       0.0000000000
                                      ------------------
             TOTAL POTENTIAL ENERGY =     -27.2227425918
               TOTAL KINETIC ENERGY =      13.5773538574
                 VIRIAL RATIO (V/T) =       2.0050109084

          ---------------------------------------
          MULLIKEN AND LOWDIN POPULATION ANALYSES
          ---------------------------------------

     ATOMIC MULLIKEN POPULATION IN EACH MOLECULAR ORBITAL
        ALPHA ORBITALS

                      1

                  1.000000

    1             1.000000

     ATOMIC MULLIKEN POPULATION IN EACH MOLECULAR ORBITAL
         BETA ORBITALS

                      1

                  1.000000

    1             1.000000

     ATOMIC SPIN POPULATION (ALPHA MINUS BETA)
       ATOM         MULL.POP.                    LOW.POP.
    1 BE            0.000000                     0.000000


          ********* ALL ELECTRONS ********

               ----- POPULATIONS IN EACH AO -----
                             MULLIKEN      LOWDIN
              1  BE 1  S      1.16577     1.07585
              2  BE 1  S      0.82298     0.86798
              3  BE 1  X      0.00000     0.00000
              4  BE 1  Y      0.00000     0.00000
              5  BE 1  Z      0.00000     0.00000
              6  BE 1  S      0.01366     0.04966
              7  BE 1  X      0.00000     0.00000
              8  BE 1  Y      0.00000     0.00000
              9  BE 1  Z      0.00000     0.00000
             10  BE 1  S      0.00094     0.00596
             11  BE 1  X      0.00000     0.00000
             12  BE 1  Y      0.00000     0.00000
             13  BE 1  Z      0.00000     0.00000
             14  BE 1  S     -0.00019     0.00054
             15  BE 1  X      0.00000     0.00000
             16  BE 1  Y      0.00000     0.00000
             17  BE 1  Z      0.00000     0.00000
             18  BE 1 XX     -0.00105     0.00000
             19  BE 1 YY     -0.00105     0.00000
             20  BE 1 ZZ     -0.00105     0.00000
             21  BE 1 XY      0.00000     0.00000
             22  BE 1 XZ      0.00000     0.00000
             23  BE 1 YZ      0.00000     0.00000

          ----- MULLIKEN ATOMIC OVERLAP POPULATIONS -----
          (OFF-DIAGONAL ELEMENTS NEED TO BE MULTIPLIED BY 2)

             1

    1    2.0000000

          TOTAL MULLIKEN AND LOWDIN ATOMIC POPULATIONS
       ATOM         MULL.POP.    CHARGE          LOW.POP.     CHARGE
    1 BE            2.000000    2.000000         2.000000    2.000000

          -------------------------------
          BOND ORDER AND VALENCE ANALYSIS     BOND ORDER THRESHOLD=0.050
          -------------------------------

                   BOND                       BOND                       BOND
  ATOM PAIR DIST  ORDER      ATOM PAIR DIST  ORDER      ATOM PAIR DIST  ORDER

                       TOTAL       BONDED        FREE
      ATOM            VALENCE     VALENCE     VALENCE
    1 BE               -0.000       0.000      -0.000

          -----------------------------------------
          ATOMIC SPIN DENSITY AT THE NUCLEUS (A.U.)
          -----------------------------------------
                            SPIN DENS    ALPHA DENS     BETA DENS
    1  BE           4.0    -0.0000000      16.28566      16.28566

          ---------------------
          ELECTROSTATIC MOMENTS
          ---------------------

 POINT   1           X           Y           Z (BOHR)    CHARGE
                 0.000000    0.000000    0.000000        2.00 (A.U.)
         DX          DY          DZ         /D/  (DEBYE)
     0.000000    0.000000    0.000000    0.000000
 ...... END OF PROPERTY EVALUATION ......
 STEP CPU TIME =     0.00 TOTAL CPU TIME =          0.2 (      0.0 MIN)
 TOTAL WALL CLOCK TIME=          0.2 SECONDS, CPU UTILIZATION IS    95.24%
               580000  WORDS OF DYNAMIC MEMORY USED
 EXECUTION OF GAMESS TERMINATED NORMALLY Tue Sep  3 14:44:21 2019
 DDI: 263640 bytes (0.3 MB / 0 MWords) used by master data server.

 ----------------------------------------
 CPU timing information for all processes
 ========================================
 0: 0.208 + 0.04 = 0.212
 ----------------------------------------
 ddikick.x: exited gracefully.
----- accounting info -----
Files used on the master node amlan-PT-3420 were:
-rw-rw-r-- 1 akroy akroy   17992 Sep  3 14:44 /tmp/charge_beril.dat
-rwxr-xr-x 1 akroy akroy     290 Sep  3 14:44 /tmp/charge_beril.F05*
-rw-rw-r-- 1 akroy akroy  180016 Sep  3 14:44 /tmp/charge_beril.F08
-rw-rw-r-- 1 akroy akroy 1734160 Sep  3 14:44 /tmp/charge_beril.F10
Tue Sep  3 14:44:24 IST 2019
0.0u 0.0s 0:03.30 0.9% 0+0k 0+16io 0pf+0w
