----- GAMESS execution script 'rungms' -----
This job is running on host amlan-PT-3420
under operating system Linux at Thu Jun 13 17:53:40 IST 2019
Available scratch disk space (Kbyte units) at beginning of the job is
Filesystem      1K-blocks     Used  Available Use% Mounted on
/dev/sda3      1916812448 56947240 1762473696   4% /
GAMESS temporary binary files will be written to /tmp
GAMESS supplementary output files will be written to /tmp
Copying input file b_atom_6_311gds_all.inp to your run's scratch directory...

 Distributed Data Interface kickoff program.
 Initiating 1 compute processes on 1 nodes to run the following command:
 /home/akroy/gamess/gamess.01.x b_atom_6_311gds_all 

          ******************************************************
          *         GAMESS VERSION = 30 SEP 2018 (R3)         *
          *             FROM IOWA STATE UNIVERSITY             *
          * M.W.SCHMIDT, K.K.BALDRIDGE, J.A.BOATZ, S.T.ELBERT, *
          *   M.S.GORDON, J.H.JENSEN, S.KOSEKI, N.MATSUNAGA,   *
          *          K.A.NGUYEN, S.J.SU, T.L.WINDUS,           *
          *       TOGETHER WITH M.DUPUIS, J.A.MONTGOMERY       *
          *         J.COMPUT.CHEM.  14, 1347-1363(1993)        *
          **************** 64 BIT LINUX VERSION ****************

  SINCE 1993, STUDENTS AND POSTDOCS WORKING AT IOWA STATE UNIVERSITY
  AND ALSO IN THEIR VARIOUS JOBS AFTER LEAVING ISU HAVE MADE IMPORTANT
  CONTRIBUTIONS TO THE CODE:
     IVANA ADAMOVIC, CHRISTINE AIKENS, YURI ALEXEEV, POOJA ARORA,
     ANDREY ASADCHEV, ROB BELL, PRADIPTA BANDYOPADHYAY, JONATHAN BENTZ,
     BRETT BODE, KURT BRORSEN, CALEB CARLIN, GALINA CHABAN, WEI CHEN,
     CHEOL HO CHOI, PAUL DAY, ALBERT DEFUSCO, NUWAN DESILVA, TIM DUDLEY,
     DMITRI FEDOROV, ALEX FINDLATER, GRAHAM FLETCHER, MARK FREITAG,
     KURT GLAESEMANN, ANASTASIA GUNINA,
     DAN KEMP, GRANT MERRILL, NORIYUKI MINEZAWA, JONATHAN MULLIN,
     TAKESHI NAGATA, SEAN NEDD, HEATHER NETZLOFF, BOSILJKA NJEGIC, RYAN OLSON,
     MIKE PAK, BUU PHAM,
     SPENCER PRUITT, LUKE ROSKOP, JIM SHOEMAKER, LYUDMILA SLIPCHENKO,
     TONY SMITH, SAROM SOK LEANG, JIE SONG, TETSUYA TAKETSUGU, SIMON WEBB,
     PENG XU, SOOHAENG YOO, FEDERICO ZAHARIEV

  ADDITIONAL CODE HAS BEEN PROVIDED BY COLLABORATORS IN OTHER GROUPS:
     IOWA STATE UNIVERSITY:
          JOE IVANIC, AARON WEST, LAIMUTIS BYTAUTAS, KLAUS RUEDENBERG
     UNIVERSITY OF TOKYO: KIMIHIKO HIRAO, TAKAHITO NAKAJIMA,
          TAKAO TSUNEDA, MUNEAKI KAMIYA, SUSUMU YANAGISAWA,
          KIYOSHI YAGI, MAHITO CHIBA, SEIKEN TOKURA, NAOAKI KAWAKAMI
     UNIVERSITY OF AARHUS: FRANK JENSEN
     UNIVERSITY OF IOWA: VISVALDAS KAIRYS, HUI LI
     NATIONAL INST. OF STANDARDS AND TECHNOLOGY: WALT STEVENS, DAVID GARMER
     UNIVERSITY OF PISA: BENEDETTA MENNUCCI, JACOPO TOMASI
     UNIVERSITY OF MEMPHIS: HENRY KURTZ, PRAKASHAN KORAMBATH
     UNIVERSITY OF ALBERTA: TOBY ZENG, MARIUSZ KLOBUKOWSKI
     UNIVERSITY OF NEW ENGLAND: MARK SPACKMAN
     MIE UNIVERSITY: HIROAKI UMEDA
     NAT. INST. OF ADVANCED INDUSTRIAL SCIENCE AND TECHNOLOGY: KAZUO KITAURA
     MICHIGAN STATE UNIVERSITY:
          KAROL KOWALSKI, MARTA WLOCH, JEFFREY GOUR, JESSE LUTZ,
          WEI LI, JUN SHEN, J. EMILIANO DEUSTUA, PIOTR PIECUCH
     UNIVERSITY OF MINNESOTA:
          YINAN SHU
     UNIVERSITY OF SILESIA: MONIKA MUSIAL, STANISLAW KUCHARSKI
     FACULTES UNIVERSITAIRES NOTRE-DAME DE LA PAIX:
          OLIVIER QUINET, BENOIT CHAMPAGNE
     UNIVERSITY OF CALIFORNIA - SANTA BARBARA: BERNARD KIRTMAN
     INSTITUTE FOR MOLECULAR SCIENCE:
          KAZUYA ISHIMURA, MICHIO KATOUDA, AND SHIGERU NAGASE
     UNIVERSITY OF NOTRE DAME: ANNA POMOGAEVA, DAN CHIPMAN
     KYUSHU UNIVERSITY:
          HARUYUKI NAKANO,
          FENG LONG GU, JACEK KORCHOWIEC, MARCIN MAKOWSKI, AND YURIKO AOKI,
          HIROTOSHI MORI AND EISAKU MIYOSHI
     PENNSYLVANIA STATE UNIVERSITY:
          TZVETELIN IORDANOV, CHET SWALINA, JONATHAN SKONE,
          SHARON HAMMES-SCHIFFER
     WASEDA UNIVERSITY:
          MASATO KOBAYASHI, TOMOKO AKAMA, TSUGUKI TOUMA,
          TAKESHI YOSHIKAWA, YASUHIRO IKABATA, JUNJI SEINO,
          YUYA NAKAJIMA, HIROMI NAKAI
     NANJING UNIVERSITY: SHUHUA LI
     UNIVERSITY OF NEBRASKA:
          PEIFENG SU, DEJUN SI, NANDUN THELLAMUREGE, YALI WANG, HUI LI
     UNIVERSITY OF ZURICH: ROBERTO PEVERATI, KIM BALDRIDGE
     N. COPERNICUS UNIVERSITY AND JACKSON STATE UNIVERSITY:
          MARIA BARYSZ
     UNIVERSITY OF COPENHAGEN: Jimmy Kromann, CASPER STEINMANN
     TOKYO INSTITUTE OF TECHNOLOGY: HIROYA NAKATA
     NAGOYA UNIVERSITY: YOSHIO NISHIMOTO, STEPHAN IRLE
     MOSCOW STATE UNIVERSITY: VLADIMIR MIRONOV

 EXECUTION OF GAMESS BEGUN Thu Jun 13 17:53:40 2019

            ECHO OF THE FIRST FEW INPUT CARDS -
 INPUT CARD> $CONTRL SCFTYP=UHF COORD=CART MULT=2 RUNTYP=ENERGY  $END                       
 INPUT CARD> $SYSTEM TIMLIM=2000 $END                                                       
 INPUT CARD> $DFT METHOD=GRID DFTTYP=NONE $END                                              
 INPUT CARD> $BASIS EXTFIL=.TRUE. GBASIS=6311GDS $END                                       
 INPUT CARD> $GUESS GUESS=HUCKEL $END                                                       
 INPUT CARD> $DATA                                                                          
 INPUT CARD>B                                                                               
 INPUT CARD>C1                                                                              
 INPUT CARD>B   5.0   0.0000   0.0000   0.0000                                              
 INPUT CARD> $END                                                                           
 INPUT CARD>                                                                                
    1000000 WORDS OF MEMORY AVAILABLE


                    * * * WARNING * * *
 OLD KEYWORD COORD=CART SELECTED, AUTOMATICALLY CHANGED TO COORD=PRINAXIS.
 YOUR MOLECULE'S COORDINATES WILL BE CHANGED TO PRINCIPAL AXES BY
   A) TRANSLATION TO THE CENTER OF MASS, THEN
   B) ROTATION TO HAVE A DIAGONAL MOMENT OF INERTIA TENSOR.

 HOWEVER, NOTHING ELSE IN YOUR INPUT WILL BE ROTATED IN THE SAME WAY,
 SO IF YOU HAVE A $VEC, $VIB, $GRAD, $HESS, EFP PARTICLE COORDINATES,
 OR ANYTHING ELSE THAT DEPENDS ON THE INITIAL ORIENTATION, THAT DATA
 WILL NOT BE USED CORRECTLY IN THIS RUN.

 THE PURPOSE OF COORD=PRINAXIS IS TO BE USED ONCE, ONLY AT THE VERY
 BEGINNING OF A SERIES OF COMPUTATIONS, PERHAPS TO FIND THE SYMMETRY
 UNIQUE ATOMS FROM AN ARBITRARY INITIAL ORIENTATION.

 AFTER THE FIRST RUN, YOU SHOULD USE ONLY COORD=UNIQUE, TO ENSURE THAT
 THE COORDINATES WHICH YOU READ IN ARE THE COORDINATES THAT ARE USED.


     $BASIS REQUESTS READING THE "6311GDS " BASIS SET FROM AN EXTERNAL FILE


     RUN TITLE
     ---------
 B                                                                               

 THE POINT GROUP OF THE MOLECULE IS C1      
 THE ORDER OF THE PRINCIPAL AXIS IS     0

 THE MOMENTS OF INERTIA ARE (AMU-ANGSTROM**2)
 IXX=     0.000   IYY=     0.000   IZZ=     0.000

 THE EXTERNAL BASIS SET FILE BEING READ IS
     "/home/akroy/gamess/EXTFILE.txt"

 ATOM      ATOMIC                      COORDINATES (BOHR)
           CHARGE         X                   Y                   Z
 B           5.0     0.0000000000        0.0000000000        0.0000000000

          INTERNUCLEAR DISTANCES (ANGS.)
          ------------------------------

                1 B     

   1 B       0.0000000  

  * ... LESS THAN  3.000


     ATOMIC BASIS SET
     ----------------
 THE CONTRACTED PRIMITIVE FUNCTIONS HAVE BEEN UNNORMALIZED
 THE CONTRACTED BASIS FUNCTIONS ARE NOW NORMALIZED TO UNITY

  SHELL TYPE  PRIMITIVE        EXPONENT          CONTRACTION COEFFICIENT(S)

 B         

      1   S       1          2858.8900000    0.002153749067
      1   S       2           428.1400000    0.016582292818
      1   S       3            97.5282000    0.082186964406
      1   S       4            27.9693000    0.276617880201
      1   S       5             8.2157700    0.629315727452
      1   S       6             1.1127800    0.173769924743

      2   L       7            13.2415000    0.117442942252    0.041809998866
      2   L       8             3.0016600    0.918001548610    0.236574993582
      2   L       9             0.9128560   -0.002651048696    0.816213977857

      3   L      10             0.3154540    1.000000000000    1.000000000000

      4   L      11             0.0988563    1.000000000000    1.000000000000

      5   L      12             0.0315000    1.000000000000    1.000000000000

      6   D      13             0.4010000    1.000000000000

 TOTAL NUMBER OF BASIS SET SHELLS             =    6
 NUMBER OF CARTESIAN GAUSSIAN BASIS FUNCTIONS =   23
 NUMBER OF ELECTRONS                          =    5
 CHARGE OF MOLECULE                           =    0
 SPIN MULTIPLICITY                            =    2
 NUMBER OF OCCUPIED ORBITALS (ALPHA)          =    3
 NUMBER OF OCCUPIED ORBITALS (BETA )          =    2
 TOTAL NUMBER OF ATOMS                        =    1
 THE NUCLEAR REPULSION ENERGY IS        0.0000000000

 THIS MOLECULE IS RECOGNIZED AS BEING LINEAR,
 ORBITAL LZ DEGENERACY TOLERANCE ETOLLZ= 1.00E-06

     $CONTRL OPTIONS
     ---------------
 SCFTYP=UHF          RUNTYP=ENERGY       EXETYP=RUN     
 MPLEVL=       0     CITYP =NONE         CCTYP =NONE         VBTYP =NONE    
 DFTTYP=NONE         TDDFT =NONE    
 MULT  =       2     ICHARG=       0     NZVAR =       0     COORD =PRINAXIS
 PP    =NONE         RELWFN=NONE         LOCAL =NONE         NUMGRD=       F
 ISPHER=      -1     NOSYM =       0     MAXIT =      30     UNITS =ANGS    
 PLTORB=       F     MOLPLT=       F     AIMPAC=       F     FRIEND=        
 NPRINT=       7     IREST =       0     GEOM  =INPUT   
 NORMF =       0     NORMP =       0     ITOL  =      20     ICUT  =       9
 INTTYP=BEST         GRDTYP=BEST         QMTTOL= 1.0E-06

     $SYSTEM OPTIONS
     ---------------
  REPLICATED MEMORY=     1000000 WORDS (ON EVERY NODE).
 DISTRIBUTED MEMDDI=           0 MILLION WORDS IN AGGREGATE,
 MEMDDI DISTRIBUTED OVER   1 PROCESSORS IS           0 WORDS/PROCESSOR.
 TOTAL MEMORY REQUESTED ON EACH PROCESSOR=     1000000 WORDS.
 TIMLIM=        2000.00 MINUTES, OR       1.4 DAYS.
 PARALL= F  BALTYP=  DLB     KDIAG=    0  COREFL= F
 MXSEQ2=     300 MXSEQ3=     150  mem10=         0

          ----------------
          PROPERTIES INPUT
          ----------------

     MOMENTS            FIELD           POTENTIAL          DENSITY
 IEMOM =       1   IEFLD =       0   IEPOT =       0   IEDEN =       0
 WHERE =COMASS     WHERE =NUCLEI     WHERE =NUCLEI     WHERE =NUCLEI  
 OUTPUT=BOTH       OUTPUT=BOTH       OUTPUT=BOTH       OUTPUT=BOTH    
 IEMINT=       0   IEFINT=       0                     IEDINT=       0
                                                       MORB  =       0
          EXTRAPOLATION IN EFFECT
          SOSCF IN EFFECT
          DIIS or SOSCF will be reset if energy rises
 ORBITAL PRINTING OPTION: NPREO=     1    23     2     1

     -------------------------------
     INTEGRAL TRANSFORMATION OPTIONS
     -------------------------------
     NWORD  =            0
     CUTOFF = 1.0E-09     MPTRAN =       0
     DIRTRF =       F     AOINTS =DUP     

          ----------------------
          INTEGRAL INPUT OPTIONS
          ----------------------
 NOPK  =       1 NORDER=       0 SCHWRZ=       F

     ------------------------------------------
     THE POINT GROUP IS C1 , NAXIS= 0, ORDER= 1
     ------------------------------------------

     DIMENSIONS OF THE SYMMETRY SUBSPACES ARE
 A   =   23

 ..... DONE SETTING UP THE RUN .....
 STEP CPU TIME =     0.01 TOTAL CPU TIME =          0.0 (      0.0 MIN)
 TOTAL WALL CLOCK TIME=          0.0 SECONDS, CPU UTILIZATION IS    50.00%

          ********************
          1 ELECTRON INTEGRALS
          ********************
 ...... END OF ONE-ELECTRON INTEGRALS ......
 STEP CPU TIME =     0.00 TOTAL CPU TIME =          0.0 (      0.0 MIN)
 TOTAL WALL CLOCK TIME=          0.0 SECONDS, CPU UTILIZATION IS    50.00%

          -------------
          GUESS OPTIONS
          -------------
          GUESS =HUCKEL            NORB  =       0          NORDER=       0
          MIX   =       F          PRTMO =       F          PUNMO =       F
          TOLZ  = 1.0E-08          TOLE  = 1.0E-05
          SYMDEN=       F          PURIFY=       F

 INITIAL GUESS ORBITALS GENERATED BY HUCKEL   ROUTINE.
 HUCKEL GUESS REQUIRES      4908 WORDS.

 SYMMETRIES FOR INITIAL GUESS ORBITALS FOLLOW.  ALPHA SET(S).
     3 ORBITALS ARE OCCUPIED (    1 CORE ORBITALS).
     2=A        3=A        4=A        5=A        6=A        7=A        8=A   
     9=A       10=A       11=A       12=A       13=A   

 SYMMETRIES FOR INITIAL GUESS ORBITALS FOLLOW.   BETA SET(S).
     2 ORBITALS ARE OCCUPIED (    1 CORE ORBITALS).
     2=A        3=A        4=A        5=A        6=A        7=A        8=A   
     9=A       10=A       11=A       12=A   
 ...... END OF INITIAL ORBITAL SELECTION ......
 STEP CPU TIME =     0.00 TOTAL CPU TIME =          0.0 (      0.0 MIN)
 TOTAL WALL CLOCK TIME=          0.0 SECONDS, CPU UTILIZATION IS    50.00%

                    ----------------------
                    AO INTEGRAL TECHNOLOGY
                    ----------------------
     S,P,L SHELL ROTATED AXIS INTEGRALS, REPROGRAMMED BY
        KAZUYA ISHIMURA (IMS) AND JOSE SIERRA (SYNSTAR).
     S,P,D,L SHELL ROTATED AXIS INTEGRALS PROGRAMMED BY
        KAZUYA ISHIMURA (INSTITUTE FOR MOLECULAR SCIENCE).
     S,P,D,F,G SHELL TO TOTAL QUARTET ANGULAR MOMENTUM SUM 5,
        ERIC PROGRAM BY GRAHAM FLETCHER (ELORET AND NASA ADVANCED
        SUPERCOMPUTING DIVISION, AMES RESEARCH CENTER).
     S,P,D,F,G,L SHELL GENERAL RYS QUADRATURE PROGRAMMED BY
        MICHEL DUPUIS (PACIFIC NORTHWEST NATIONAL LABORATORY).

          --------------------
          2 ELECTRON INTEGRALS
          --------------------

 THE -PK- OPTION IS OFF, THE INTEGRALS ARE NOT IN SUPERMATRIX FORM.
 STORING   15000 INTEGRALS/RECORD ON DISK, USING 12 BYTES/INTEGRAL.
 TWO ELECTRON INTEGRAL EVALUATION REQUIRES   90417 WORDS OF MEMORY.
 II,JST,KST,LST =  1  1  1  1 NREC =         1 INTLOC =    1
 II,JST,KST,LST =  2  1  1  1 NREC =         1 INTLOC =    2
 II,JST,KST,LST =  3  1  1  1 NREC =         1 INTLOC =   34
 II,JST,KST,LST =  4  1  1  1 NREC =         1 INTLOC =  214
 II,JST,KST,LST =  5  1  1  1 NREC =         1 INTLOC =  776
 II,JST,KST,LST =  6  1  1  1 NREC =         1 INTLOC = 2074
 TOTAL NUMBER OF NONZERO TWO-ELECTRON INTEGRALS =                5928
          1 INTEGRAL RECORDS WERE STORED ON DISK FILE  8.
  ...... END OF TWO-ELECTRON INTEGRALS .....
 STEP CPU TIME =     0.01 TOTAL CPU TIME =          0.0 (      0.0 MIN)
 TOTAL WALL CLOCK TIME=          0.0 SECONDS, CPU UTILIZATION IS    66.67%

          ---------------------------
                  UHF SCF CALCULATION
          ---------------------------

     NUCLEAR ENERGY =         0.0000000000
     MAXIT = 30     NPUNCH=  2     MULT=  2
     EXTRAP=T  DAMP=F  SHIFT=F  RSTRCT=F  DIIS=F  SOSCF=T
     DENSITY MATRIX CONV=  1.00E-05
     SOSCF WILL OPTIMIZE      60 ALPHA AND      42 BETA ROTATION ANGLES.
     SOGTOL= 2.500E-01
     MEMORY REQUIRED FOR UHF/ROHF ITERS=     36372 WORDS.

 ITER EX      TOTAL ENERGY        E CHANGE  DENSITY CHANGE    ORB. GRAD 
   1  0      -24.4633629128   -24.4633629128   0.539117874   0.000000000
          ---------------START SECOND ORDER SCF---------------
   2  1      -24.5296491883    -0.0662862755   0.038795297   0.023146593
   3  2      -24.5303714208    -0.0007222325   0.006824588   0.003574342
   4  3      -24.5304055571    -0.0000341363   0.001004752   0.000593768
   5  4      -24.5304066651    -0.0000011079   0.000586796   0.000164274
   6  5      -24.5304068321    -0.0000001671   0.000249305   0.000056168
   7  6      -24.5304068501    -0.0000000179   0.000079166   0.000023412
   8  7      -24.5304068520    -0.0000000020   0.000008147   0.000003207
   9  8      -24.5304068521    -0.0000000001   0.000002389   0.000000664

          -----------------
          DENSITY CONVERGED
          -----------------
     TIME TO FORM FOCK OPERATORS=       0.0 SECONDS (       0.0 SEC/ITER)
     TIME TO SOLVE SCF EQUATIONS=       0.0 SECONDS (       0.0 SEC/ITER)

 FINAL UHF ENERGY IS      -24.5304068521 AFTER   9 ITERATIONS

          --------------------
          SPIN SZ   =    0.500
          S-SQUARED =    0.757
          --------------------

 LZ VALUE ANALYSIS FOR THE MOS
 ----------------------------------------
 MO     1 (    1) HAS LZ(WEIGHT)= 0.00(100.0%) 
 MO     2 (    2) HAS LZ(WEIGHT)= 0.00(100.0%) 
 MO     3 (    3) HAS LZ(WEIGHT)= 0.00(100.0%) 
 MO     4 (    4) HAS LZ(WEIGHT)= 0.00(100.0%) 
 MO     5 (    4) HAS LZ(WEIGHT)= 0.00(100.0%) 
 MO     6 (    5) HAS LZ(WEIGHT)= 0.00(100.0%) 
 MO     7 (    6) HAS LZ(WEIGHT)= 0.00(100.0%) 
 MO     8 (    7) HAS LZ(WEIGHT)= 0.00(100.0%) 
 MO     9 (    7) HAS LZ(WEIGHT)= 0.00(100.0%) 
 MO    10 (    8) HAS LZ(WEIGHT)= 0.00(100.0%) 
 MO    11 (    9) HAS LZ(WEIGHT)= 0.00(100.0%) 
 MO    12 (   10) HAS LZ(WEIGHT)= 0.00(100.0%) 
 MO    13 (   10) HAS LZ(WEIGHT)= 0.00(100.0%) 
 MO    14 (   11) HAS LZ(WEIGHT)= 0.00(100.0%) 
 MO    15 (   12) HAS LZ(WEIGHT)= 0.00(100.0%) 
 MO    16 (   12) HAS LZ(WEIGHT)= 0.00(100.0%) 
 MO    17 (   13) HAS LZ(WEIGHT)= 0.00(100.0%) 
 MO    18 (   13) HAS LZ(WEIGHT)= 0.00(100.0%) 
 MO    19 (   14) HAS LZ(WEIGHT)= 0.00(100.0%) 
 MO    20 (   15) HAS LZ(WEIGHT)= 0.00(100.0%) 
 MO    21 (   16) HAS LZ(WEIGHT)= 0.00(100.0%) 
 MO    22 (   16) HAS LZ(WEIGHT)= 0.00(100.0%) 
 MO    23 (   17) HAS LZ(WEIGHT)= 0.00(100.0%) 

  ----- ALPHA SET ----- 

          ------------
          EIGENVECTORS
          ------------

                      1          2          3          4          5
                   -7.7009    -0.5446    -0.3171     0.0292     0.0292
                     A          A          A          A          A   
    1  B  1  S    0.578739  -0.121086  -0.000000  -0.000000   0.000000
    2  B  1  S    0.457425  -0.202273  -0.000000  -0.000000   0.000000
    3  B  1  X   -0.000000  -0.000000   0.266110  -0.000000   0.000000
    4  B  1  Y   -0.000000  -0.000000  -0.000000   0.121679   0.035313
    5  B  1  Z   -0.000000  -0.000000  -0.000000  -0.035313   0.121679
    6  B  1  S    0.001261   0.582844  -0.000000  -0.000000   0.000000
    7  B  1  X   -0.000000  -0.000000   0.459559  -0.000000   0.000000
    8  B  1  Y   -0.000000  -0.000000  -0.000000   0.231068   0.067059
    9  B  1  Z   -0.000000  -0.000000  -0.000000  -0.067059   0.231068
   10  B  1  S    0.001358   0.512258  -0.000000  -0.000000   0.000000
   11  B  1  X   -0.000000  -0.000000   0.443281  -0.000000   0.000000
   12  B  1  Y   -0.000000  -0.000000  -0.000000   0.222507   0.064575
   13  B  1  Z   -0.000000  -0.000000  -0.000000  -0.064575   0.222507
   14  B  1  S   -0.000326   0.002230  -0.000000  -0.000000   0.000000
   15  B  1  X   -0.000000  -0.000000   0.036895  -0.000000   0.000000
   16  B  1  Y   -0.000000  -0.000000  -0.000000   0.639379   0.185556
   17  B  1  Z   -0.000000  -0.000000  -0.000000  -0.185556   0.639379
   18  B  1 XX    0.000797   0.047836  -0.000000  -0.000000   0.000000
   19  B  1 YY   -0.001217  -0.013246  -0.000000  -0.000000   0.000000
   20  B  1 ZZ   -0.001217  -0.013246  -0.000000  -0.000000   0.000000
   21  B  1 XY   -0.000000  -0.000000  -0.000000  -0.000000   0.000000
   22  B  1 XZ   -0.000000  -0.000000  -0.000000  -0.000000   0.000000
   23  B  1 YZ   -0.000000  -0.000000  -0.000000  -0.000000   0.000000

                      6          7          8          9         10
                    0.0726     0.0918     0.1260     0.1260     0.4923
                     A          A          A          A          A   
    1  B  1  S    0.032217   0.000000   0.000000  -0.000000  -0.000000
    2  B  1  S    0.068729   0.000000   0.000000  -0.000000  -0.000000
    3  B  1  X    0.000000  -0.096816   0.000000  -0.000000  -0.206974
    4  B  1  Y    0.000000   0.000000  -0.175514   0.023014  -0.000000
    5  B  1  Z    0.000000   0.000000  -0.023014  -0.175514  -0.000000
    6  B  1  S   -0.054592   0.000000   0.000000  -0.000000  -0.000000
    7  B  1  X    0.000000  -0.056906   0.000000  -0.000000  -1.017973
    8  B  1  Y    0.000000   0.000000  -0.164216   0.021532  -0.000000
    9  B  1  Z    0.000000   0.000000  -0.021532  -0.164216  -0.000000
   10  B  1  S   -1.219274   0.000000   0.000000  -0.000000  -0.000000
   11  B  1  X    0.000000  -0.572907   0.000000  -0.000000   1.702351
   12  B  1  Y    0.000000   0.000000  -0.948967   0.124429  -0.000000
   13  B  1  Z    0.000000   0.000000  -0.124429  -0.948967  -0.000000
   14  B  1  S    1.651560   0.000000   0.000000  -0.000000  -0.000000
   15  B  1  X    0.000000   1.274970   0.000000  -0.000000  -0.714743
   16  B  1  Y    0.000000   0.000000   1.125326  -0.147554  -0.000000
   17  B  1  Z    0.000000   0.000000   0.147554   1.125326  -0.000000
   18  B  1 XX    0.050433   0.000000   0.000000  -0.000000  -0.000000
   19  B  1 YY    0.055369   0.000000   0.000000  -0.000000  -0.000000
   20  B  1 ZZ    0.055369   0.000000   0.000000  -0.000000  -0.000000
   21  B  1 XY    0.000000   0.000000   0.000000  -0.000000  -0.000000
   22  B  1 XZ    0.000000   0.000000   0.000000  -0.000000  -0.000000
   23  B  1 YZ    0.000000   0.000000   0.000000  -0.000000  -0.000000

                     11         12         13         14         15
                    0.5004     0.5375     0.5375     1.0039     1.0103
                     A          A          A          A          A   
    1  B  1  S    0.100392  -0.000000  -0.000000   0.004446   0.000000
    2  B  1  S    0.114049  -0.000000  -0.000000   0.004900   0.000000
    3  B  1  X    0.000000  -0.000000  -0.000000  -0.000000   0.000000
    4  B  1  Y    0.000000   0.069275  -0.214311  -0.000000   0.000000
    5  B  1  Z    0.000000  -0.214311  -0.069275  -0.000000   0.000000
    6  B  1  S   -1.581140  -0.000000  -0.000000  -0.029066   0.000000
    7  B  1  X    0.000000  -0.000000  -0.000000  -0.000000   0.000000
    8  B  1  Y    0.000000   0.345377  -1.068468  -0.000000   0.000000
    9  B  1  Z    0.000000  -1.068468  -0.345377  -0.000000   0.000000
   10  B  1  S    3.051316  -0.000000  -0.000000   0.022518   0.000000
   11  B  1  X    0.000000  -0.000000  -0.000000  -0.000000   0.000000
   12  B  1  Y    0.000000  -0.485534   1.502061  -0.000000   0.000000
   13  B  1  Z    0.000000   1.502061   0.485534  -0.000000   0.000000
   14  B  1  S   -1.145794  -0.000000  -0.000000  -0.011226   0.000000
   15  B  1  X    0.000000  -0.000000  -0.000000  -0.000000   0.000000
   16  B  1  Y    0.000000   0.197025  -0.609521  -0.000000   0.000000
   17  B  1  Z    0.000000  -0.609521  -0.197025  -0.000000   0.000000
   18  B  1 XX   -0.348212  -0.000000  -0.000000   0.985359   0.000000
   19  B  1 YY   -0.331136  -0.000000  -0.000000  -0.513258   0.000000
   20  B  1 ZZ   -0.331136  -0.000000  -0.000000  -0.513258   0.000000
   21  B  1 XY    0.000000  -0.000000  -0.000000  -0.000000   0.999977
   22  B  1 XZ    0.000000  -0.000000  -0.000000  -0.000000  -0.006838
   23  B  1 YZ    0.000000  -0.000000  -0.000000  -0.000000   0.000000

                     16         17         18         19         20
                    1.0103     1.0351     1.0351     2.0341     2.0574
                     A          A          A          A          A   
    1  B  1  S   -0.000000  -0.000000  -0.000000  -0.163649  -0.000000
    2  B  1  S   -0.000000  -0.000000  -0.000000  -0.635221  -0.000000
    3  B  1  X   -0.000000  -0.000000  -0.000000  -0.000000  -1.374829
    4  B  1  Y   -0.000000  -0.000000  -0.000000  -0.000000  -0.000000
    5  B  1  Z   -0.000000  -0.000000  -0.000000  -0.000000  -0.000000
    6  B  1  S   -0.000000  -0.000000  -0.000000   1.973380  -0.000000
    7  B  1  X   -0.000000  -0.000000  -0.000000  -0.000000   1.642207
    8  B  1  Y   -0.000000  -0.000000  -0.000000  -0.000000  -0.000000
    9  B  1  Z   -0.000000  -0.000000  -0.000000  -0.000000  -0.000000
   10  B  1  S   -0.000000  -0.000000  -0.000000   1.941271  -0.000000
   11  B  1  X   -0.000000  -0.000000  -0.000000  -0.000000  -0.900284
   12  B  1  Y   -0.000000  -0.000000  -0.000000  -0.000000  -0.000000
   13  B  1  Z   -0.000000  -0.000000  -0.000000  -0.000000  -0.000000
   14  B  1  S   -0.000000  -0.000000  -0.000000  -0.540142  -0.000000
   15  B  1  X   -0.000000  -0.000000  -0.000000  -0.000000   0.296869
   16  B  1  Y   -0.000000  -0.000000  -0.000000  -0.000000  -0.000000
   17  B  1  Z   -0.000000  -0.000000  -0.000000  -0.000000  -0.000000
   18  B  1 XX   -0.000000  -0.000000  -0.000000  -1.504702  -0.000000
   19  B  1 YY   -0.000000   0.005571  -0.866007  -1.494962  -0.000000
   20  B  1 ZZ   -0.000000  -0.005571   0.866007  -1.494962  -0.000000
   21  B  1 XY    0.006838  -0.000000  -0.000000  -0.000000  -0.000000
   22  B  1 XZ    0.999977  -0.000000  -0.000000  -0.000000  -0.000000
   23  B  1 YZ   -0.000000   0.999979   0.006433  -0.000000  -0.000000

                     21         22         23
                    2.0753     2.0753    16.8581
                     A          A          A   
    1  B  1  S   -0.000000   0.000000  -1.984569
    2  B  1  S   -0.000000   0.000000   2.483761
    3  B  1  X   -0.000000   0.000000  -0.000000
    4  B  1  Y   -1.355360  -0.279401  -0.000000
    5  B  1  Z    0.279401  -1.355360  -0.000000
    6  B  1  S   -0.000000   0.000000  -1.245644
    7  B  1  X   -0.000000   0.000000  -0.000000
    8  B  1  Y    1.579645   0.325636  -0.000000
    9  B  1  Z   -0.325636   1.579645  -0.000000
   10  B  1  S   -0.000000   0.000000  -0.600298
   11  B  1  X   -0.000000   0.000000  -0.000000
   12  B  1  Y   -0.860317  -0.177350  -0.000000
   13  B  1  Z    0.177350  -0.860317  -0.000000
   14  B  1  S   -0.000000   0.000000   0.172150
   15  B  1  X   -0.000000   0.000000  -0.000000
   16  B  1  Y    0.284192   0.058585  -0.000000
   17  B  1  Z   -0.058585   0.284192  -0.000000
   18  B  1 XX   -0.000000   0.000000   0.636430
   19  B  1 YY   -0.000000   0.000000   0.636353
   20  B  1 ZZ   -0.000000   0.000000   0.636353
   21  B  1 XY   -0.000000   0.000000  -0.000000
   22  B  1 XZ   -0.000000   0.000000  -0.000000
   23  B  1 YZ   -0.000000   0.000000  -0.000000

 LZ VALUE ANALYSIS FOR THE MOS
 ----------------------------------------
 MO     1 (    1) HAS LZ(WEIGHT)= 0.00(100.0%) 
 MO     2 (    2) HAS LZ(WEIGHT)= 0.00(100.0%) 
 MO     3 (    3) HAS LZ(WEIGHT)= 0.00(100.0%) 
 MO     4 (    3) HAS LZ(WEIGHT)= 0.00(100.0%) 
 MO     5 (    4) HAS LZ(WEIGHT)= 0.00(100.0%) 
 MO     6 (    5) HAS LZ(WEIGHT)= 0.00(100.0%) 
 MO     7 (    6) HAS LZ(WEIGHT)= 0.00(100.0%) 
 MO     8 (    6) HAS LZ(WEIGHT)= 0.00(100.0%) 
 MO     9 (    7) HAS LZ(WEIGHT)= 0.00(100.0%) 
 MO    10 (    8) HAS LZ(WEIGHT)= 0.00(100.0%) 
 MO    11 (    9) HAS LZ(WEIGHT)= 0.00(100.0%) 
 MO    12 (    9) HAS LZ(WEIGHT)= 0.00(100.0%) 
 MO    13 (   10) HAS LZ(WEIGHT)= 0.00(100.0%) 
 MO    14 (   11) HAS LZ(WEIGHT)= 0.00(100.0%) 
 MO    15 (   11) HAS LZ(WEIGHT)= 0.00(100.0%) 
 MO    16 (   12) HAS LZ(WEIGHT)= 0.00(100.0%) 
 MO    17 (   12) HAS LZ(WEIGHT)= 0.00(100.0%) 
 MO    18 (   13) HAS LZ(WEIGHT)= 0.00(100.0%) 
 MO    19 (   14) HAS LZ(WEIGHT)= 0.00(100.0%) 
 MO    20 (   15) HAS LZ(WEIGHT)= 0.00(100.0%) 
 MO    21 (   15) HAS LZ(WEIGHT)= 0.00(100.0%) 
 MO    22 (   16) HAS LZ(WEIGHT)= 0.00(100.0%) 
 MO    23 (   17) HAS LZ(WEIGHT)= 0.00(100.0%) 

  ----- BETA SET ----- 

          ------------
          EIGENVECTORS
          ------------

                      1          2          3          4          5
                   -7.6859    -0.4459     0.0367     0.0367     0.0579
                     A          A          A          A          A   
    1  B  1  S    0.579749  -0.116496  -0.000000   0.000000  -0.000000
    2  B  1  S    0.458139  -0.194808  -0.000000   0.000000  -0.000000
    3  B  1  X   -0.000000  -0.000000  -0.000000   0.000000   0.071700
    4  B  1  Y   -0.000000  -0.000000   0.109157   0.017369  -0.000000
    5  B  1  Z   -0.000000  -0.000000  -0.017369   0.109157  -0.000000
    6  B  1  S   -0.003366   0.540975  -0.000000   0.000000  -0.000000
    7  B  1  X   -0.000000  -0.000000  -0.000000   0.000000   0.164527
    8  B  1  Y   -0.000000  -0.000000   0.213456   0.033964  -0.000000
    9  B  1  Z   -0.000000  -0.000000  -0.033964   0.213456  -0.000000
   10  B  1  S    0.000609   0.543614  -0.000000   0.000000  -0.000000
   11  B  1  X   -0.000000  -0.000000  -0.000000   0.000000  -0.014794
   12  B  1  Y   -0.000000  -0.000000   0.168632   0.026832  -0.000000
   13  B  1  Z   -0.000000  -0.000000  -0.026832   0.168632  -0.000000
   14  B  1  S   -0.000183   0.023372  -0.000000   0.000000  -0.000000
   15  B  1  X   -0.000000  -0.000000  -0.000000   0.000000   0.942464
   16  B  1  Y   -0.000000  -0.000000   0.737403   0.117333  -0.000000
   17  B  1  Z   -0.000000  -0.000000  -0.117333   0.737403  -0.000000
   18  B  1 XX    0.000133  -0.031135  -0.000000   0.000000  -0.000000
   19  B  1 YY    0.000678   0.021488  -0.000000   0.000000  -0.000000
   20  B  1 ZZ    0.000678   0.021488  -0.000000   0.000000  -0.000000
   21  B  1 XY   -0.000000  -0.000000  -0.000000   0.000000  -0.000000
   22  B  1 XZ   -0.000000  -0.000000  -0.000000   0.000000  -0.000000
   23  B  1 YZ   -0.000000  -0.000000  -0.000000   0.000000  -0.000000

                      6          7          8          9         10
                    0.0781     0.1345     0.1345     0.1685     0.5218
                     A          A          A          A          A   
    1  B  1  S    0.032847  -0.000000  -0.000000  -0.000000   0.102134
    2  B  1  S    0.070304  -0.000000  -0.000000  -0.000000   0.113923
    3  B  1  X    0.000000  -0.000000  -0.000000   0.195674  -0.000000
    4  B  1  Y    0.000000  -0.162547   0.082940  -0.000000  -0.000000
    5  B  1  Z    0.000000  -0.082940  -0.162547  -0.000000  -0.000000
    6  B  1  S   -0.032634  -0.000000  -0.000000  -0.000000  -1.577951
    7  B  1  X    0.000000  -0.000000  -0.000000   0.147200  -0.000000
    8  B  1  Y    0.000000  -0.146383   0.074692  -0.000000  -0.000000
    9  B  1  Z    0.000000  -0.074692  -0.146383  -0.000000  -0.000000
   10  B  1  S   -1.295438  -0.000000  -0.000000  -0.000000   3.028568
   11  B  1  X    0.000000  -0.000000  -0.000000   1.085849  -0.000000
   12  B  1  Y    0.000000  -0.890414   0.454333  -0.000000  -0.000000
   13  B  1  Z    0.000000  -0.454333  -0.890414  -0.000000  -0.000000
   14  B  1  S    1.674410  -0.000000  -0.000000  -0.000000  -1.115100
   15  B  1  X    0.000000  -0.000000  -0.000000  -0.947918  -0.000000
   16  B  1  Y    0.000000   0.971226  -0.495567  -0.000000  -0.000000
   17  B  1  Z    0.000000   0.495567   0.971226  -0.000000  -0.000000
   18  B  1 XX    0.066592  -0.000000  -0.000000  -0.000000  -0.331451
   19  B  1 YY    0.053989  -0.000000  -0.000000  -0.000000  -0.357011
   20  B  1 ZZ    0.053989  -0.000000  -0.000000  -0.000000  -0.357011
   21  B  1 XY    0.000000  -0.000000  -0.000000  -0.000000  -0.000000
   22  B  1 XZ    0.000000  -0.000000  -0.000000  -0.000000  -0.000000
   23  B  1 YZ    0.000000  -0.000000  -0.000000  -0.000000  -0.000000

                     11         12         13         14         15
                    0.5481     0.5481     0.5877     1.0410     1.0410
                     A          A          A          A          A   
    1  B  1  S   -0.000000   0.000000  -0.000000   0.000000   0.000000
    2  B  1  S   -0.000000   0.000000  -0.000000   0.000000   0.000000
    3  B  1  X   -0.000000   0.000000  -0.232259   0.000000   0.000000
    4  B  1  Y   -0.226290  -0.008694  -0.000000   0.000000   0.000000
    5  B  1  Z    0.008694  -0.226290  -0.000000   0.000000   0.000000
    6  B  1  S   -0.000000   0.000000  -0.000000   0.000000   0.000000
    7  B  1  X   -0.000000   0.000000  -1.145653   0.000000   0.000000
    8  B  1  Y   -1.130682  -0.043439  -0.000000   0.000000   0.000000
    9  B  1  Z    0.043439  -1.130682  -0.000000   0.000000   0.000000
   10  B  1  S   -0.000000   0.000000  -0.000000   0.000000   0.000000
   11  B  1  X   -0.000000   0.000000   1.517400   0.000000   0.000000
   12  B  1  Y    1.560670   0.059959  -0.000000   0.000000   0.000000
   13  B  1  Z   -0.059959   1.560670  -0.000000   0.000000   0.000000
   14  B  1  S   -0.000000   0.000000  -0.000000   0.000000   0.000000
   15  B  1  X   -0.000000   0.000000  -0.598111   0.000000   0.000000
   16  B  1  Y   -0.628861  -0.024160  -0.000000   0.000000   0.000000
   17  B  1  Z    0.024160  -0.628861  -0.000000   0.000000   0.000000
   18  B  1 XX   -0.000000   0.000000  -0.000000   0.000000   0.000000
   19  B  1 YY   -0.000000   0.000000  -0.000000   0.012178   0.865940
   20  B  1 ZZ   -0.000000   0.000000  -0.000000  -0.012178  -0.865940
   21  B  1 XY   -0.000000   0.000000  -0.000000   0.000000   0.000000
   22  B  1 XZ   -0.000000   0.000000  -0.000000   0.000000   0.000000
   23  B  1 YZ   -0.000000   0.000000  -0.000000   0.999901  -0.014062

                     16         17         18         19         20
                    1.0820     1.0820     1.0972     2.0584     2.0845
                     A          A          A          A          A   
    1  B  1  S   -0.000000   0.000000  -0.008111  -0.163902  -0.000000
    2  B  1  S   -0.000000   0.000000  -0.016130  -0.636333  -0.000000
    3  B  1  X   -0.000000   0.000000  -0.000000   0.000000  -0.000000
    4  B  1  Y   -0.000000   0.000000  -0.000000   0.000000   0.042363
    5  B  1  Z   -0.000000   0.000000  -0.000000   0.000000  -1.383686
    6  B  1  S   -0.000000   0.000000   0.068864   1.987220  -0.000000
    7  B  1  X   -0.000000   0.000000  -0.000000   0.000000  -0.000000
    8  B  1  Y   -0.000000   0.000000  -0.000000   0.000000  -0.049282
    9  B  1  Z   -0.000000   0.000000  -0.000000   0.000000   1.609678
   10  B  1  S   -0.000000   0.000000   0.000338   1.919183  -0.000000
   11  B  1  X   -0.000000   0.000000  -0.000000   0.000000  -0.000000
   12  B  1  Y   -0.000000   0.000000  -0.000000   0.000000   0.026775
   13  B  1  Z   -0.000000   0.000000  -0.000000   0.000000  -0.874536
   14  B  1  S   -0.000000   0.000000  -0.000361  -0.533654  -0.000000
   15  B  1  X   -0.000000   0.000000  -0.000000   0.000000  -0.000000
   16  B  1  Y   -0.000000   0.000000  -0.000000   0.000000  -0.008840
   17  B  1  Z   -0.000000   0.000000  -0.000000   0.000000   0.288742
   18  B  1 XX   -0.000000   0.000000   0.987609  -1.506997  -0.000000
   19  B  1 YY   -0.000000   0.000000  -0.511097  -1.489735  -0.000000
   20  B  1 ZZ   -0.000000   0.000000  -0.511097  -1.489735  -0.000000
   21  B  1 XY    0.994011   0.109278  -0.000000   0.000000  -0.000000
   22  B  1 XZ   -0.109278   0.994011  -0.000000   0.000000  -0.000000
   23  B  1 YZ   -0.000000   0.000000  -0.000000   0.000000  -0.000000

                     21         22         23
                    2.0845     2.1279    16.8675
                     A          A          A   
    1  B  1  S   -0.000000  -0.000000  -1.984417
    2  B  1  S   -0.000000  -0.000000   2.483856
    3  B  1  X   -0.000000  -1.384127  -0.000000
    4  B  1  Y   -1.383686  -0.000000  -0.000000
    5  B  1  Z   -0.042363  -0.000000  -0.000000
    6  B  1  S   -0.000000  -0.000000  -1.245773
    7  B  1  X   -0.000000   1.608194  -0.000000
    8  B  1  Y    1.609678  -0.000000  -0.000000
    9  B  1  Z    0.049282  -0.000000  -0.000000
   10  B  1  S   -0.000000  -0.000000  -0.599833
   11  B  1  X   -0.000000  -0.866856  -0.000000
   12  B  1  Y   -0.874536  -0.000000  -0.000000
   13  B  1  Z   -0.026775  -0.000000  -0.000000
   14  B  1  S   -0.000000  -0.000000   0.172004
   15  B  1  X   -0.000000   0.285261  -0.000000
   16  B  1  Y    0.288742  -0.000000  -0.000000
   17  B  1  Z    0.008840  -0.000000  -0.000000
   18  B  1 XX   -0.000000  -0.000000   0.636010
   19  B  1 YY   -0.000000  -0.000000   0.636256
   20  B  1 ZZ   -0.000000  -0.000000   0.636256
   21  B  1 XY   -0.000000  -0.000000  -0.000000
   22  B  1 XZ   -0.000000  -0.000000  -0.000000
   23  B  1 YZ   -0.000000  -0.000000  -0.000000
 ...... END OF UHF CALCULATION ......
 STEP CPU TIME =     0.00 TOTAL CPU TIME =          0.0 (      0.0 MIN)
 TOTAL WALL CLOCK TIME=          0.0 SECONDS, CPU UTILIZATION IS    50.00%

     ----------------------------------------------------------------
     PROPERTY VALUES FOR THE UHF   SELF-CONSISTENT FIELD WAVEFUNCTION
     ----------------------------------------------------------------

          -----------------
          ENERGY COMPONENTS
          -----------------

         WAVEFUNCTION NORMALIZATION =       1.0000000000

                ONE ELECTRON ENERGY =     -32.3663854158
                TWO ELECTRON ENERGY =       7.8359785637
           NUCLEAR REPULSION ENERGY =       0.0000000000
                                      ------------------
                       TOTAL ENERGY =     -24.5304068521

 ELECTRON-ELECTRON POTENTIAL ENERGY =       7.8359785637
  NUCLEUS-ELECTRON POTENTIAL ENERGY =     -56.8945682543
   NUCLEUS-NUCLEUS POTENTIAL ENERGY =       0.0000000000
                                      ------------------
             TOTAL POTENTIAL ENERGY =     -49.0585896906
               TOTAL KINETIC ENERGY =      24.5281828385
                 VIRIAL RATIO (V/T) =       2.0000906718

          ---------------------------------------
          MULLIKEN AND LOWDIN POPULATION ANALYSES
          ---------------------------------------

     ATOMIC MULLIKEN POPULATION IN EACH MOLECULAR ORBITAL
        ALPHA ORBITALS

                      1          2          3

                  1.000000   1.000000   1.000000

    1             1.000000   1.000000   1.000000

     ATOMIC MULLIKEN POPULATION IN EACH MOLECULAR ORBITAL
         BETA ORBITALS

                      1          2

                  1.000000   1.000000

    1             1.000000   1.000000

     ATOMIC SPIN POPULATION (ALPHA MINUS BETA)
       ATOM         MULL.POP.                    LOW.POP.
    1 B             1.000000                     1.000000


          ********* ALL ELECTRONS ********

               ----- POPULATIONS IN EACH AO -----
                             MULLIKEN      LOWDIN
              1  B  1  S      1.13514     1.07790
              2  B  1  S      0.85526     0.89219
              3  B  1  X      0.17886     0.18994
              4  B  1  Y      0.00000     0.00000
              5  B  1  Z      0.00000     0.00000
              6  B  1  S      0.97914     0.62380
              7  B  1  X      0.43124     0.42598
              8  B  1  Y      0.00000     0.00000
              9  B  1  Z      0.00000     0.00000
             10  B  1  S      0.98720     0.55616
             11  B  1  X      0.37254     0.33154
             12  B  1  Y      0.00000     0.00000
             13  B  1  Z      0.00000     0.00000
             14  B  1  S      0.01706     0.16971
             15  B  1  X      0.01736     0.05254
             16  B  1  Y      0.00000     0.00000
             17  B  1  Z      0.00000     0.00000
             18  B  1 XX      0.01390     0.23104
             19  B  1 YY      0.00615     0.22460
             20  B  1 ZZ      0.00615     0.22460
             21  B  1 XY      0.00000     0.00000
             22  B  1 XZ      0.00000     0.00000
             23  B  1 YZ      0.00000     0.00000

          ----- MULLIKEN ATOMIC OVERLAP POPULATIONS -----
          (OFF-DIAGONAL ELEMENTS NEED TO BE MULTIPLIED BY 2)

             1

    1    5.0000000

          TOTAL MULLIKEN AND LOWDIN ATOMIC POPULATIONS
       ATOM         MULL.POP.    CHARGE          LOW.POP.     CHARGE
    1 B             5.000000    0.000000         5.000000   -0.000000

          -------------------------------
          BOND ORDER AND VALENCE ANALYSIS     BOND ORDER THRESHOLD=0.050
          -------------------------------

                   BOND                       BOND                       BOND
  ATOM PAIR DIST  ORDER      ATOM PAIR DIST  ORDER      ATOM PAIR DIST  ORDER

                       TOTAL       BONDED        FREE
      ATOM            VALENCE     VALENCE     VALENCE
    1 B                 1.014       0.000       1.014

          -----------------------------------------
          ATOMIC SPIN DENSITY AT THE NUCLEUS (A.U.)
          -----------------------------------------
                            SPIN DENS    ALPHA DENS     BETA DENS
    1  B            5.0     0.0104901      34.05974      34.04925

          ---------------------
          ELECTROSTATIC MOMENTS
          ---------------------

 POINT   1           X           Y           Z (BOHR)    CHARGE
                 0.000000    0.000000    0.000000       -0.00 (A.U.)
         DX          DY          DZ         /D/  (DEBYE)
     0.000000    0.000000    0.000000    0.000000
 ...... END OF PROPERTY EVALUATION ......
 STEP CPU TIME =     0.01 TOTAL CPU TIME =          0.0 (      0.0 MIN)
 TOTAL WALL CLOCK TIME=          0.0 SECONDS, CPU UTILIZATION IS    75.00%
               580000  WORDS OF DYNAMIC MEMORY USED
 EXECUTION OF GAMESS TERMINATED NORMALLY Thu Jun 13 17:53:40 2019
 DDI: 263640 bytes (0.3 MB / 0 MWords) used by master data server.

 ----------------------------------------
 CPU timing information for all processes
 ========================================
 0: 0.32 + 0.04 = 0.36
 ----------------------------------------
 ddikick.x: exited gracefully.
----- accounting info -----
Files used on the master node amlan-PT-3420 were:
-rw-rw-r-- 1 akroy akroy   18582 Jun 13 17:53 /tmp/b_atom_6_311gds_all.dat
-rw-rw-r-- 1 akroy akroy     241 Jun 13 17:53 /tmp/b_atom_6_311gds_all.F05
-rw-rw-r-- 1 akroy akroy  180016 Jun 13 17:53 /tmp/b_atom_6_311gds_all.F08
-rw-rw-r-- 1 akroy akroy 1930480 Jun 13 17:53 /tmp/b_atom_6_311gds_all.F10
Thu Jun 13 17:53:43 IST 2019
0.0u 0.0s 0:03.18 1.5% 0+0k 0+16io 0pf+0w
