----- GAMESS execution script 'rungms' -----
This job is running on host amlan-PT-3420
under operating system Linux at Thu Jun 13 22:27:12 IST 2019
Available scratch disk space (Kbyte units) at beginning of the job is
Filesystem      1K-blocks     Used  Available Use% Mounted on
/dev/sda3      1916812448 56944468 1762476468   4% /
GAMESS temporary binary files will be written to /tmp
GAMESS supplementary output files will be written to /tmp
Copying input file li_atom_6_311g_all.inp to your run's scratch directory...

 Distributed Data Interface kickoff program.
 Initiating 1 compute processes on 1 nodes to run the following command:
 /home/akroy/gamess/gamess.01.x li_atom_6_311g_all 

          ******************************************************
          *         GAMESS VERSION = 30 SEP 2018 (R3)         *
          *             FROM IOWA STATE UNIVERSITY             *
          * M.W.SCHMIDT, K.K.BALDRIDGE, J.A.BOATZ, S.T.ELBERT, *
          *   M.S.GORDON, J.H.JENSEN, S.KOSEKI, N.MATSUNAGA,   *
          *          K.A.NGUYEN, S.J.SU, T.L.WINDUS,           *
          *       TOGETHER WITH M.DUPUIS, J.A.MONTGOMERY       *
          *         J.COMPUT.CHEM.  14, 1347-1363(1993)        *
          **************** 64 BIT LINUX VERSION ****************

  SINCE 1993, STUDENTS AND POSTDOCS WORKING AT IOWA STATE UNIVERSITY
  AND ALSO IN THEIR VARIOUS JOBS AFTER LEAVING ISU HAVE MADE IMPORTANT
  CONTRIBUTIONS TO THE CODE:
     IVANA ADAMOVIC, CHRISTINE AIKENS, YURI ALEXEEV, POOJA ARORA,
     ANDREY ASADCHEV, ROB BELL, PRADIPTA BANDYOPADHYAY, JONATHAN BENTZ,
     BRETT BODE, KURT BRORSEN, CALEB CARLIN, GALINA CHABAN, WEI CHEN,
     CHEOL HO CHOI, PAUL DAY, ALBERT DEFUSCO, NUWAN DESILVA, TIM DUDLEY,
     DMITRI FEDOROV, ALEX FINDLATER, GRAHAM FLETCHER, MARK FREITAG,
     KURT GLAESEMANN, ANASTASIA GUNINA,
     DAN KEMP, GRANT MERRILL, NORIYUKI MINEZAWA, JONATHAN MULLIN,
     TAKESHI NAGATA, SEAN NEDD, HEATHER NETZLOFF, BOSILJKA NJEGIC, RYAN OLSON,
     MIKE PAK, BUU PHAM,
     SPENCER PRUITT, LUKE ROSKOP, JIM SHOEMAKER, LYUDMILA SLIPCHENKO,
     TONY SMITH, SAROM SOK LEANG, JIE SONG, TETSUYA TAKETSUGU, SIMON WEBB,
     PENG XU, SOOHAENG YOO, FEDERICO ZAHARIEV

  ADDITIONAL CODE HAS BEEN PROVIDED BY COLLABORATORS IN OTHER GROUPS:
     IOWA STATE UNIVERSITY:
          JOE IVANIC, AARON WEST, LAIMUTIS BYTAUTAS, KLAUS RUEDENBERG
     UNIVERSITY OF TOKYO: KIMIHIKO HIRAO, TAKAHITO NAKAJIMA,
          TAKAO TSUNEDA, MUNEAKI KAMIYA, SUSUMU YANAGISAWA,
          KIYOSHI YAGI, MAHITO CHIBA, SEIKEN TOKURA, NAOAKI KAWAKAMI
     UNIVERSITY OF AARHUS: FRANK JENSEN
     UNIVERSITY OF IOWA: VISVALDAS KAIRYS, HUI LI
     NATIONAL INST. OF STANDARDS AND TECHNOLOGY: WALT STEVENS, DAVID GARMER
     UNIVERSITY OF PISA: BENEDETTA MENNUCCI, JACOPO TOMASI
     UNIVERSITY OF MEMPHIS: HENRY KURTZ, PRAKASHAN KORAMBATH
     UNIVERSITY OF ALBERTA: TOBY ZENG, MARIUSZ KLOBUKOWSKI
     UNIVERSITY OF NEW ENGLAND: MARK SPACKMAN
     MIE UNIVERSITY: HIROAKI UMEDA
     NAT. INST. OF ADVANCED INDUSTRIAL SCIENCE AND TECHNOLOGY: KAZUO KITAURA
     MICHIGAN STATE UNIVERSITY:
          KAROL KOWALSKI, MARTA WLOCH, JEFFREY GOUR, JESSE LUTZ,
          WEI LI, JUN SHEN, J. EMILIANO DEUSTUA, PIOTR PIECUCH
     UNIVERSITY OF MINNESOTA:
          YINAN SHU
     UNIVERSITY OF SILESIA: MONIKA MUSIAL, STANISLAW KUCHARSKI
     FACULTES UNIVERSITAIRES NOTRE-DAME DE LA PAIX:
          OLIVIER QUINET, BENOIT CHAMPAGNE
     UNIVERSITY OF CALIFORNIA - SANTA BARBARA: BERNARD KIRTMAN
     INSTITUTE FOR MOLECULAR SCIENCE:
          KAZUYA ISHIMURA, MICHIO KATOUDA, AND SHIGERU NAGASE
     UNIVERSITY OF NOTRE DAME: ANNA POMOGAEVA, DAN CHIPMAN
     KYUSHU UNIVERSITY:
          HARUYUKI NAKANO,
          FENG LONG GU, JACEK KORCHOWIEC, MARCIN MAKOWSKI, AND YURIKO AOKI,
          HIROTOSHI MORI AND EISAKU MIYOSHI
     PENNSYLVANIA STATE UNIVERSITY:
          TZVETELIN IORDANOV, CHET SWALINA, JONATHAN SKONE,
          SHARON HAMMES-SCHIFFER
     WASEDA UNIVERSITY:
          MASATO KOBAYASHI, TOMOKO AKAMA, TSUGUKI TOUMA,
          TAKESHI YOSHIKAWA, YASUHIRO IKABATA, JUNJI SEINO,
          YUYA NAKAJIMA, HIROMI NAKAI
     NANJING UNIVERSITY: SHUHUA LI
     UNIVERSITY OF NEBRASKA:
          PEIFENG SU, DEJUN SI, NANDUN THELLAMUREGE, YALI WANG, HUI LI
     UNIVERSITY OF ZURICH: ROBERTO PEVERATI, KIM BALDRIDGE
     N. COPERNICUS UNIVERSITY AND JACKSON STATE UNIVERSITY:
          MARIA BARYSZ
     UNIVERSITY OF COPENHAGEN: Jimmy Kromann, CASPER STEINMANN
     TOKYO INSTITUTE OF TECHNOLOGY: HIROYA NAKATA
     NAGOYA UNIVERSITY: YOSHIO NISHIMOTO, STEPHAN IRLE
     MOSCOW STATE UNIVERSITY: VLADIMIR MIRONOV

 EXECUTION OF GAMESS BEGUN Thu Jun 13 22:27:12 2019

            ECHO OF THE FIRST FEW INPUT CARDS -
 INPUT CARD> $CONTRL SCFTYP=UHF COORD=CART MULT=2  RUNTYP=ENERGY $END                       
 INPUT CARD> $SYSTEM TIMLIM=2000 $END                                                       
 INPUT CARD> $DFT METHOD=GRID DFTTYP=NONE $END                                              
 INPUT CARD> $BASIS EXTFIL=.TRUE. GBASIS=6311G $END                                         
 INPUT CARD> $GUESS GUESS=HUCKEL $END                                                       
 INPUT CARD> $DATA                                                                          
 INPUT CARD>LI                                                                              
 INPUT CARD>C1                                                                              
 INPUT CARD>LI   3.0   0.0000   0.0000   0.0000                                             
 INPUT CARD> $END                                                                           
 INPUT CARD>                                                                                
 INPUT CARD>                                                                                
 INPUT CARD>                                                                                
 INPUT CARD>                                                                                
 INPUT CARD>                                                                                
 INPUT CARD>                                                                                
 INPUT CARD>                                                                                
 INPUT CARD>                                                                                
 INPUT CARD>                                                                                
 INPUT CARD>                                                                                
    1000000 WORDS OF MEMORY AVAILABLE


                    * * * WARNING * * *
 OLD KEYWORD COORD=CART SELECTED, AUTOMATICALLY CHANGED TO COORD=PRINAXIS.
 YOUR MOLECULE'S COORDINATES WILL BE CHANGED TO PRINCIPAL AXES BY
   A) TRANSLATION TO THE CENTER OF MASS, THEN
   B) ROTATION TO HAVE A DIAGONAL MOMENT OF INERTIA TENSOR.

 HOWEVER, NOTHING ELSE IN YOUR INPUT WILL BE ROTATED IN THE SAME WAY,
 SO IF YOU HAVE A $VEC, $VIB, $GRAD, $HESS, EFP PARTICLE COORDINATES,
 OR ANYTHING ELSE THAT DEPENDS ON THE INITIAL ORIENTATION, THAT DATA
 WILL NOT BE USED CORRECTLY IN THIS RUN.

 THE PURPOSE OF COORD=PRINAXIS IS TO BE USED ONCE, ONLY AT THE VERY
 BEGINNING OF A SERIES OF COMPUTATIONS, PERHAPS TO FIND THE SYMMETRY
 UNIQUE ATOMS FROM AN ARBITRARY INITIAL ORIENTATION.

 AFTER THE FIRST RUN, YOU SHOULD USE ONLY COORD=UNIQUE, TO ENSURE THAT
 THE COORDINATES WHICH YOU READ IN ARE THE COORDINATES THAT ARE USED.


     $BASIS REQUESTS READING THE "6311G   " BASIS SET FROM AN EXTERNAL FILE


     RUN TITLE
     ---------
 LI                                                                              

 THE POINT GROUP OF THE MOLECULE IS C1      
 THE ORDER OF THE PRINCIPAL AXIS IS     0

 THE MOMENTS OF INERTIA ARE (AMU-ANGSTROM**2)
 IXX=     0.000   IYY=     0.000   IZZ=     0.000

 THE EXTERNAL BASIS SET FILE BEING READ IS
     "/home/akroy/gamess/EXTFILE.txt"

 ATOM      ATOMIC                      COORDINATES (BOHR)
           CHARGE         X                   Y                   Z
 LI          3.0     0.0000000000        0.0000000000        0.0000000000

          INTERNUCLEAR DISTANCES (ANGS.)
          ------------------------------

                1 LI    

   1 LI      0.0000000  

  * ... LESS THAN  3.000


     ATOMIC BASIS SET
     ----------------
 THE CONTRACTED PRIMITIVE FUNCTIONS HAVE BEEN UNNORMALIZED
 THE CONTRACTED BASIS FUNCTIONS ARE NOW NORMALIZED TO UNITY

  SHELL TYPE  PRIMITIVE        EXPONENT          CONTRACTION COEFFICIENT(S)

 LI        

      1   S       1           900.4600000    0.002287040374
      1   S       2           134.4330000    0.017635002886
      1   S       3            30.4365000    0.087343414295
      1   S       4             8.6263900    0.280977045987
      1   S       5             2.4833200    0.658741107814
      1   S       6             0.3031790    0.118712019429

      2   L       7             4.8689000    0.093329299515    0.032766096583
      2   L       8             0.8569240    0.943044995097    0.159791983337
      2   L       9             0.2432270   -0.002798269985    0.885666907644

      3   L      10             0.0635070    1.000000000000    1.000000000000

      4   L      11             0.0243683    1.000000000000    1.000000000000

      5   L      12             0.0074000    1.000000000000    1.000000000000

 TOTAL NUMBER OF BASIS SET SHELLS             =    5
 NUMBER OF CARTESIAN GAUSSIAN BASIS FUNCTIONS =   17
 NUMBER OF ELECTRONS                          =    3
 CHARGE OF MOLECULE                           =    0
 SPIN MULTIPLICITY                            =    2
 NUMBER OF OCCUPIED ORBITALS (ALPHA)          =    2
 NUMBER OF OCCUPIED ORBITALS (BETA )          =    1
 TOTAL NUMBER OF ATOMS                        =    1
 THE NUCLEAR REPULSION ENERGY IS        0.0000000000

 THIS MOLECULE IS RECOGNIZED AS BEING LINEAR,
 ORBITAL LZ DEGENERACY TOLERANCE ETOLLZ= 1.00E-06

     $CONTRL OPTIONS
     ---------------
 SCFTYP=UHF          RUNTYP=ENERGY       EXETYP=RUN     
 MPLEVL=       0     CITYP =NONE         CCTYP =NONE         VBTYP =NONE    
 DFTTYP=NONE         TDDFT =NONE    
 MULT  =       2     ICHARG=       0     NZVAR =       0     COORD =PRINAXIS
 PP    =NONE         RELWFN=NONE         LOCAL =NONE         NUMGRD=       F
 ISPHER=      -1     NOSYM =       0     MAXIT =      30     UNITS =ANGS    
 PLTORB=       F     MOLPLT=       F     AIMPAC=       F     FRIEND=        
 NPRINT=       7     IREST =       0     GEOM  =INPUT   
 NORMF =       0     NORMP =       0     ITOL  =      20     ICUT  =       9
 INTTYP=BEST         GRDTYP=BEST         QMTTOL= 1.0E-06

     $SYSTEM OPTIONS
     ---------------
  REPLICATED MEMORY=     1000000 WORDS (ON EVERY NODE).
 DISTRIBUTED MEMDDI=           0 MILLION WORDS IN AGGREGATE,
 MEMDDI DISTRIBUTED OVER   1 PROCESSORS IS           0 WORDS/PROCESSOR.
 TOTAL MEMORY REQUESTED ON EACH PROCESSOR=     1000000 WORDS.
 TIMLIM=        2000.00 MINUTES, OR       1.4 DAYS.
 PARALL= F  BALTYP=  DLB     KDIAG=    0  COREFL= F
 MXSEQ2=     300 MXSEQ3=     150  mem10=         0

          ----------------
          PROPERTIES INPUT
          ----------------

     MOMENTS            FIELD           POTENTIAL          DENSITY
 IEMOM =       1   IEFLD =       0   IEPOT =       0   IEDEN =       0
 WHERE =COMASS     WHERE =NUCLEI     WHERE =NUCLEI     WHERE =NUCLEI  
 OUTPUT=BOTH       OUTPUT=BOTH       OUTPUT=BOTH       OUTPUT=BOTH    
 IEMINT=       0   IEFINT=       0                     IEDINT=       0
                                                       MORB  =       0
          EXTRAPOLATION IN EFFECT
          SOSCF IN EFFECT
          DIIS or SOSCF will be reset if energy rises
 ORBITAL PRINTING OPTION: NPREO=     1    17     2     1

     -------------------------------
     INTEGRAL TRANSFORMATION OPTIONS
     -------------------------------
     NWORD  =            0
     CUTOFF = 1.0E-09     MPTRAN =       0
     DIRTRF =       F     AOINTS =DUP     

          ----------------------
          INTEGRAL INPUT OPTIONS
          ----------------------
 NOPK  =       1 NORDER=       0 SCHWRZ=       F

     ------------------------------------------
     THE POINT GROUP IS C1 , NAXIS= 0, ORDER= 1
     ------------------------------------------

     DIMENSIONS OF THE SYMMETRY SUBSPACES ARE
 A   =   17

 ..... DONE SETTING UP THE RUN .....
 STEP CPU TIME =     0.01 TOTAL CPU TIME =          0.0 (      0.0 MIN)
 TOTAL WALL CLOCK TIME=          0.0 SECONDS, CPU UTILIZATION IS   100.00%

          ********************
          1 ELECTRON INTEGRALS
          ********************
 ...... END OF ONE-ELECTRON INTEGRALS ......
 STEP CPU TIME =     0.00 TOTAL CPU TIME =          0.0 (      0.0 MIN)
 TOTAL WALL CLOCK TIME=          0.0 SECONDS, CPU UTILIZATION IS   100.00%

          -------------
          GUESS OPTIONS
          -------------
          GUESS =HUCKEL            NORB  =       0          NORDER=       0
          MIX   =       F          PRTMO =       F          PUNMO =       F
          TOLZ  = 1.0E-08          TOLE  = 1.0E-05
          SYMDEN=       F          PURIFY=       F

 INITIAL GUESS ORBITALS GENERATED BY HUCKEL   ROUTINE.
 HUCKEL GUESS REQUIRES      2964 WORDS.

 SYMMETRIES FOR INITIAL GUESS ORBITALS FOLLOW.  ALPHA SET(S).
     2 ORBITALS ARE OCCUPIED (    1 CORE ORBITALS).
     2=A        3=A        4=A        5=A        6=A        7=A        8=A   
     9=A       10=A       11=A       12=A   

 SYMMETRIES FOR INITIAL GUESS ORBITALS FOLLOW.   BETA SET(S).
     1 ORBITALS ARE OCCUPIED (    1 CORE ORBITALS).
     2=A        3=A        4=A        5=A        6=A        7=A        8=A   
     9=A       10=A       11=A   
 ...... END OF INITIAL ORBITAL SELECTION ......
 STEP CPU TIME =     0.00 TOTAL CPU TIME =          0.0 (      0.0 MIN)
 TOTAL WALL CLOCK TIME=          0.0 SECONDS, CPU UTILIZATION IS    50.00%

                    ----------------------
                    AO INTEGRAL TECHNOLOGY
                    ----------------------
     S,P,L SHELL ROTATED AXIS INTEGRALS, REPROGRAMMED BY
        KAZUYA ISHIMURA (IMS) AND JOSE SIERRA (SYNSTAR).
     S,P,D,L SHELL ROTATED AXIS INTEGRALS PROGRAMMED BY
        KAZUYA ISHIMURA (INSTITUTE FOR MOLECULAR SCIENCE).
     S,P,D,F,G SHELL TO TOTAL QUARTET ANGULAR MOMENTUM SUM 5,
        ERIC PROGRAM BY GRAHAM FLETCHER (ELORET AND NASA ADVANCED
        SUPERCOMPUTING DIVISION, AMES RESEARCH CENTER).
     S,P,D,F,G,L SHELL GENERAL RYS QUADRATURE PROGRAMMED BY
        MICHEL DUPUIS (PACIFIC NORTHWEST NATIONAL LABORATORY).

          --------------------
          2 ELECTRON INTEGRALS
          --------------------

 THE -PK- OPTION IS OFF, THE INTEGRALS ARE NOT IN SUPERMATRIX FORM.
 STORING   15000 INTEGRALS/RECORD ON DISK, USING 12 BYTES/INTEGRAL.
 TWO ELECTRON INTEGRAL EVALUATION REQUIRES   89371 WORDS OF MEMORY.
 II,JST,KST,LST =  1  1  1  1 NREC =         1 INTLOC =    1
 II,JST,KST,LST =  2  1  1  1 NREC =         1 INTLOC =    2
 II,JST,KST,LST =  3  1  1  1 NREC =         1 INTLOC =   34
 II,JST,KST,LST =  4  1  1  1 NREC =         1 INTLOC =  214
 II,JST,KST,LST =  5  1  1  1 NREC =         1 INTLOC =  776
 TOTAL NUMBER OF NONZERO TWO-ELECTRON INTEGRALS =                2073
          1 INTEGRAL RECORDS WERE STORED ON DISK FILE  8.
  ...... END OF TWO-ELECTRON INTEGRALS .....
 STEP CPU TIME =     0.01 TOTAL CPU TIME =          0.0 (      0.0 MIN)
 TOTAL WALL CLOCK TIME=          0.0 SECONDS, CPU UTILIZATION IS   100.00%

          ---------------------------
                  UHF SCF CALCULATION
          ---------------------------

     NUCLEAR ENERGY =         0.0000000000
     MAXIT = 30     NPUNCH=  2     MULT=  2
     EXTRAP=T  DAMP=F  SHIFT=F  RSTRCT=F  DIIS=F  SOSCF=T
     DENSITY MATRIX CONV=  1.00E-05
     SOSCF WILL OPTIMIZE      30 ALPHA AND      16 BETA ROTATION ANGLES.
     SOGTOL= 2.500E-01
     MEMORY REQUIRED FOR UHF/ROHF ITERS=     33484 WORDS.

 ITER EX      TOTAL ENERGY        E CHANGE  DENSITY CHANGE    ORB. GRAD 
   1  0       -7.4270862315    -7.4270862315   0.166660347   0.000000000
          ---------------START SECOND ORDER SCF---------------
   2  1       -7.4316923573    -0.0046061258   0.066443712   0.007477076
   3  2       -7.4319561164    -0.0002637591   0.053824933   0.002975331
   4  3       -7.4320257573    -0.0000696409   0.003220347   0.000937234
   5  4       -7.4320268102    -0.0000010529   0.000482154   0.000254158
   6  5       -7.4320268839    -0.0000000736   0.000094718   0.000037613
   7  6       -7.4320268848    -0.0000000009   0.000025084   0.000007629
   8  7       -7.4320268848    -0.0000000000   0.000001073   0.000000354
   9  8       -7.4320268848    -0.0000000000   0.000000418   0.000000134

          -----------------
          DENSITY CONVERGED
          -----------------
     TIME TO FORM FOCK OPERATORS=       0.0 SECONDS (       0.0 SEC/ITER)
     TIME TO SOLVE SCF EQUATIONS=       0.0 SECONDS (       0.0 SEC/ITER)

 FINAL UHF ENERGY IS       -7.4320268848 AFTER   9 ITERATIONS

          --------------------
          SPIN SZ   =    0.500
          S-SQUARED =    0.750
          --------------------

 LZ VALUE ANALYSIS FOR THE MOS
 ----------------------------------------
 MO     1 (    1) HAS LZ(WEIGHT)= 0.00(100.0%) 
 MO     2 (    2) HAS LZ(WEIGHT)= 0.00(100.0%) 
 MO     3 (    3) HAS LZ(WEIGHT)=-1.00( 49.9%)  1.00( 49.9%) 
 MO     4 (    3) HAS LZ(WEIGHT)=-0.00( 99.7%) 
 MO     5 (    3) HAS LZ(WEIGHT)=-1.00( 50.0%)  1.00( 50.0%) 
 MO     6 (    4) HAS LZ(WEIGHT)= 0.00(100.0%) 
 MO     7 (    5) HAS LZ(WEIGHT)=-1.00( 22.8%)  0.00( 54.3%)  1.00( 22.8%) 
 MO     8 (    5) HAS LZ(WEIGHT)=-1.00( 48.4%)  0.00(  3.2%)  1.00( 48.4%) 
 MO     9 (    5) HAS LZ(WEIGHT)=-1.00( 28.8%)  0.00( 42.5%)  1.00( 28.8%) 
 MO    10 (    6) HAS LZ(WEIGHT)= 0.00(100.0%) 
 MO    11 (    7) HAS LZ(WEIGHT)=-0.00( 99.9%) 
 MO    12 (    7) HAS LZ(WEIGHT)=-1.00( 50.0%)  1.00( 50.0%) 
 MO    13 (    7) HAS LZ(WEIGHT)=-1.00( 49.9%)  1.00( 49.9%) 
 MO    14 (    8) HAS LZ(WEIGHT)=-1.00( 49.8%)  1.00( 49.8%) 
 MO    15 (    8) HAS LZ(WEIGHT)= 0.00( 99.5%) 
 MO    16 (    8) HAS LZ(WEIGHT)=-1.00( 50.0%)  1.00( 50.0%) 
 MO    17 (    9) HAS LZ(WEIGHT)= 0.00(100.0%) 

  ----- ALPHA SET ----- 

          ------------
          EIGENVECTORS
          ------------

                      1          2          3          4          5
                   -2.4859    -0.1962     0.0115     0.0115     0.0115
                     A          A          A          A          A   
    1  LI 1  S    0.620057  -0.094032  -0.000000  -0.000000  -0.000000
    2  LI 1  S    0.427512  -0.169552  -0.000000  -0.000000  -0.000000
    3  LI 1  X   -0.000000  -0.000000   0.031539   0.002232  -0.024203
    4  LI 1  Y   -0.000000  -0.000000   0.024235   0.000138   0.031593
    5  LI 1  Z   -0.000000  -0.000000  -0.001855   0.039755   0.001249
    6  LI 1  S   -0.004105   0.689778  -0.000000  -0.000000  -0.000000
    7  LI 1  X   -0.000000  -0.000000   0.151924   0.010752  -0.116586
    8  LI 1  Y   -0.000000  -0.000000   0.116740   0.000664   0.152185
    9  LI 1  Z   -0.000000  -0.000000  -0.008935   0.191501   0.006018
   10  LI 1  S    0.002547   0.385920  -0.000000  -0.000000  -0.000000
   11  LI 1  X   -0.000000  -0.000000   0.012071   0.000854  -0.009264
   12  LI 1  Y   -0.000000  -0.000000   0.009276   0.000053   0.012092
   13  LI 1  Z   -0.000000  -0.000000  -0.000710   0.015216   0.000478
   14  LI 1  S   -0.000711   0.001457  -0.000000  -0.000000  -0.000000
   15  LI 1  X   -0.000000  -0.000000   0.718920   0.050879  -0.551699
   16  LI 1  Y   -0.000000  -0.000000   0.552425   0.003143   0.720155
   17  LI 1  Z   -0.000000  -0.000000  -0.042280   0.906205   0.028478

                      6          7          8          9         10
                    0.0183     0.0403     0.0403     0.0403     0.1351
                     A          A          A          A          A   
    1  LI 1  S    0.020223  -0.000000  -0.000000  -0.000000   0.083008
    2  LI 1  S    0.031308  -0.000000  -0.000000  -0.000000   0.200151
    3  LI 1  X   -0.000000   0.063971  -0.064914  -0.054502  -0.000000
    4  LI 1  Y   -0.000000   0.032522   0.081854  -0.059319  -0.000000
    5  LI 1  Z   -0.000000   0.078273   0.019042   0.069190  -0.000000
    6  LI 1  S    0.048868  -0.000000  -0.000000  -0.000000  -2.278050
    7  LI 1  X   -0.000000   0.054090  -0.054887  -0.046084  -0.000000
    8  LI 1  Y   -0.000000   0.027499   0.069211  -0.050156  -0.000000
    9  LI 1  Z   -0.000000   0.066183   0.016101   0.058503  -0.000000
   10  LI 1  S   -1.098919  -0.000000  -0.000000  -0.000000   2.976045
   11  LI 1  X   -0.000000   0.701902  -0.712250  -0.598016  -0.000000
   12  LI 1  Y   -0.000000   0.356842   0.898129  -0.650859  -0.000000
   13  LI 1  Z   -0.000000   0.858828   0.208935   0.759177  -0.000000
   14  LI 1  S    1.588584  -0.000000  -0.000000  -0.000000  -1.043101
   15  LI 1  X   -0.000000  -0.591740   0.600463   0.504158  -0.000000
   16  LI 1  Y   -0.000000  -0.300837  -0.757169   0.548708  -0.000000
   17  LI 1  Z   -0.000000  -0.724037  -0.176143  -0.640025  -0.000000

                     11         12         13         14         15
                    0.1504     0.1504     0.1504     0.5799     0.5799
                     A          A          A          A          A   
    1  LI 1  S    0.000000   0.000000   0.000000   0.000000  -0.000000
    2  LI 1  S    0.000000   0.000000   0.000000   0.000000  -0.000000
    3  LI 1  X    0.003038  -0.068818  -0.076347  -1.202968  -0.066609
    4  LI 1  Y   -0.002411  -0.076407   0.068776   0.456895   0.067772
    5  LI 1  Z   -0.102757  -0.000242  -0.003871   0.086373  -1.286202
    6  LI 1  S    0.000000   0.000000   0.000000   0.000000  -0.000000
    7  LI 1  X    0.045947  -1.040693  -1.154560   1.327796   0.073521
    8  LI 1  Y   -0.036454  -1.155468   1.040061  -0.504306  -0.074805
    9  LI 1  Z   -1.553937  -0.003665  -0.058537  -0.095336   1.419667
   10  LI 1  S    0.000000   0.000000   0.000000   0.000000  -0.000000
   11  LI 1  X   -0.052480   1.188678   1.318736  -0.825634  -0.045716
   12  LI 1  Y    0.041637   1.319773  -1.187956   0.313581   0.046514
   13  LI 1  Z    1.774905   0.004186   0.066860   0.059281  -0.882760
   14  LI 1  S    0.000000   0.000000   0.000000   0.000000  -0.000000
   15  LI 1  X    0.017466  -0.395605  -0.438889   0.233719   0.012941
   16  LI 1  Y   -0.013857  -0.439235   0.395364  -0.088768  -0.013167
   17  LI 1  Z   -0.590707  -0.001393  -0.022252  -0.016781   0.249890

                     16         17
                    0.5799     3.9447
                     A          A   
    1  LI 1  S    0.000000  -1.652891
    2  LI 1  S    0.000000   1.819514
    3  LI 1  X   -0.460192  -0.000000
    4  LI 1  Y   -1.204159  -0.000000
    5  LI 1  Z   -0.039617  -0.000000
    6  LI 1  S    0.000000  -0.555656
    7  LI 1  X    0.507945  -0.000000
    8  LI 1  Y    1.329111  -0.000000
    9  LI 1  Z    0.043728  -0.000000
   10  LI 1  S    0.000000   0.456463
   11  LI 1  X   -0.315844  -0.000000
   12  LI 1  Y   -0.826451  -0.000000
   13  LI 1  Z   -0.027190  -0.000000
   14  LI 1  S    0.000000  -0.140376
   15  LI 1  X    0.089408  -0.000000
   16  LI 1  Y    0.233950  -0.000000
   17  LI 1  Z    0.007697  -0.000000

 LZ VALUE ANALYSIS FOR THE MOS
 ----------------------------------------
 MO     1 (    1) HAS LZ(WEIGHT)= 0.00(100.0%) 
 MO     2 (    2) HAS LZ(WEIGHT)= 0.00(100.0%) 
 MO     3 (    3) HAS LZ(WEIGHT)=-1.00(  2.9%)  0.00( 94.3%)  1.00(  2.9%) 
 MO     4 (    3) HAS LZ(WEIGHT)=-1.00( 47.2%)  0.00(  5.6%)  1.00( 47.2%) 
 MO     5 (    3) HAS LZ(WEIGHT)=-1.00( 49.9%)  1.00( 49.9%) 
 MO     6 (    4) HAS LZ(WEIGHT)= 0.00(100.0%) 
 MO     7 (    5) HAS LZ(WEIGHT)= 0.00( 99.3%) 
 MO     8 (    5) HAS LZ(WEIGHT)=-1.00( 49.7%)  1.00( 49.7%) 
 MO     9 (    5) HAS LZ(WEIGHT)=-1.00( 50.0%)  1.00( 50.0%) 
 MO    10 (    6) HAS LZ(WEIGHT)= 0.00(100.0%) 
 MO    11 (    7) HAS LZ(WEIGHT)=-1.00(  1.6%) -0.00( 96.7%)  1.00(  1.6%) 
 MO    12 (    7) HAS LZ(WEIGHT)=-1.00( 48.6%) -0.00(  2.8%)  1.00( 48.6%) 
 MO    13 (    7) HAS LZ(WEIGHT)=-1.00( 49.8%)  1.00( 49.8%) 
 MO    14 (    8) HAS LZ(WEIGHT)=-1.00( 50.0%)  1.00( 50.0%) 
 MO    15 (    8) HAS LZ(WEIGHT)=-1.00( 46.4%)  0.00(  7.1%)  1.00( 46.4%) 
 MO    16 (    8) HAS LZ(WEIGHT)=-1.00(  3.6%)  0.00( 92.8%)  1.00(  3.6%) 
 MO    17 (    9) HAS LZ(WEIGHT)= 0.00(100.0%) 

  ----- BETA SET ----- 

          ------------
          EIGENVECTORS
          ------------

                      1          2          3          4          5
                   -2.4681     0.0054     0.0164     0.0164     0.0164
                     A          A          A          A          A   
    1  LI 1  S    0.614959  -0.033720   0.000000  -0.000000  -0.000000
    2  LI 1  S    0.432228  -0.059925   0.000000  -0.000000  -0.000000
    3  LI 1  X   -0.000000  -0.000000  -0.000799   0.003665  -0.002286
    4  LI 1  Y   -0.000000  -0.000000  -0.000684   0.002188   0.003747
    5  LI 1  Z   -0.000000  -0.000000   0.004265   0.001037   0.000173
    6  LI 1  S   -0.001290   0.157818   0.000000  -0.000000  -0.000000
    7  LI 1  X   -0.000000  -0.000000  -0.018127   0.083182  -0.051892
    8  LI 1  Y   -0.000000  -0.000000  -0.015521   0.049671   0.085044
    9  LI 1  Z   -0.000000  -0.000000   0.096805   0.023541   0.003919
   10  LI 1  S    0.000526  -0.134933   0.000000  -0.000000  -0.000000
   11  LI 1  X   -0.000000  -0.000000   0.047372  -0.217379   0.135608
   12  LI 1  Y   -0.000000  -0.000000   0.040562  -0.129805  -0.222245
   13  LI 1  Z   -0.000000  -0.000000  -0.252978  -0.061518  -0.010241
   14  LI 1  S   -0.000111   1.031159   0.000000  -0.000000  -0.000000
   15  LI 1  X   -0.000000  -0.000000  -0.205925   0.944945  -0.589489
   16  LI 1  Y   -0.000000  -0.000000  -0.176323   0.564260   0.966097
   17  LI 1  Z   -0.000000  -0.000000   1.099694   0.267420   0.044516

                      6          7          8          9         10
                    0.0389     0.0643     0.0643     0.0643     0.1740
                     A          A          A          A          A   
    1  LI 1  S   -0.053194   0.000000   0.000000   0.000000   0.106561
    2  LI 1  S   -0.081846   0.000000   0.000000   0.000000   0.250475
    3  LI 1  X    0.000000  -0.006872   0.071897   0.055980  -0.000000
    4  LI 1  Y    0.000000   0.003108  -0.055922   0.072203  -0.000000
    5  LI 1  Z    0.000000   0.091067   0.007333   0.001760  -0.000000
    6  LI 1  S   -0.216855   0.000000   0.000000   0.000000  -2.366937
    7  LI 1  X    0.000000   0.013677  -0.143104  -0.111425  -0.000000
    8  LI 1  Y    0.000000  -0.006186   0.111308  -0.143714  -0.000000
    9  LI 1  Z    0.000000  -0.181262  -0.014597  -0.003503  -0.000000
   10  LI 1  S    1.858014   0.000000   0.000000   0.000000   2.597596
   11  LI 1  X    0.000000  -0.109918   1.150044   0.895454  -0.000000
   12  LI 1  Y    0.000000   0.049711  -0.894516   1.154942  -0.000000
   13  LI 1  Z    0.000000   1.456698   0.117305   0.028155  -0.000000
   14  LI 1  S   -1.354535   0.000000   0.000000   0.000000  -0.845006
   15  LI 1  X    0.000000   0.059391  -0.621392  -0.483832  -0.000000
   16  LI 1  Y    0.000000  -0.026860   0.483325  -0.624038  -0.000000
   17  LI 1  Z    0.000000  -0.787083  -0.063382  -0.015212  -0.000000

                     11         12         13         14         15
                    0.1791     0.1791     0.1791     0.5923     0.5923
                     A          A          A          A          A   
    1  LI 1  S    0.000000  -0.000000  -0.000000   0.000000   0.000000
    2  LI 1  S    0.000000  -0.000000  -0.000000   0.000000   0.000000
    3  LI 1  X   -0.017227   0.071278   0.074798  -1.223679  -0.388856
    4  LI 1  Y   -0.007752   0.074725  -0.072994   0.411289  -1.181982
    5  LI 1  Z    0.103030   0.017540   0.007014  -0.029844  -0.345179
    6  LI 1  S    0.000000  -0.000000  -0.000000   0.000000   0.000000
    7  LI 1  X   -0.259324   1.072981   1.125974   1.326724   0.421601
    8  LI 1  Y   -0.116700   1.124876  -1.098812  -0.445923   1.281516
    9  LI 1  Z    1.550963   0.264044   0.105586   0.032357   0.374247
   10  LI 1  S    0.000000  -0.000000  -0.000000   0.000000   0.000000
   11  LI 1  X    0.252157  -1.043327  -1.094855  -0.815677  -0.259202
   12  LI 1  Y    0.113475  -1.093787   1.068444   0.274156  -0.787883
   13  LI 1  Z   -1.508098  -0.256746  -0.102668  -0.019893  -0.230089
   14  LI 1  S    0.000000  -0.000000  -0.000000   0.000000   0.000000
   15  LI 1  X   -0.079751   0.329980   0.346277   0.230543   0.073261
   16  LI 1  Y   -0.035889   0.345939  -0.337924  -0.077488   0.222688
   17  LI 1  Z    0.476976   0.081203   0.032471   0.005623   0.065032

                     16         17
                    0.5923     3.9654
                     A          A   
    1  LI 1  S   -0.000000  -1.655042
    2  LI 1  S   -0.000000   1.817508
    3  LI 1  X    0.137260  -0.000000
    4  LI 1  Y    0.318118  -0.000000
    5  LI 1  Z   -1.243945  -0.000000
    6  LI 1  S   -0.000000  -0.549671
    7  LI 1  X   -0.148819  -0.000000
    8  LI 1  Y   -0.344907  -0.000000
    9  LI 1  Z    1.348697  -0.000000
   10  LI 1  S   -0.000000   0.451483
   11  LI 1  X    0.091494  -0.000000
   12  LI 1  Y    0.212050  -0.000000
   13  LI 1  Z   -0.829186  -0.000000
   14  LI 1  S   -0.000000  -0.138860
   15  LI 1  X   -0.025860  -0.000000
   16  LI 1  Y   -0.059934  -0.000000
   17  LI 1  Z    0.234362  -0.000000
 ...... END OF UHF CALCULATION ......
 STEP CPU TIME =     0.00 TOTAL CPU TIME =          0.0 (      0.0 MIN)
 TOTAL WALL CLOCK TIME=          0.0 SECONDS, CPU UTILIZATION IS    66.67%

     ----------------------------------------------------------------
     PROPERTY VALUES FOR THE UHF   SELF-CONSISTENT FIELD WAVEFUNCTION
     ----------------------------------------------------------------

          -----------------
          ENERGY COMPONENTS
          -----------------

         WAVEFUNCTION NORMALIZATION =       1.0000000000

                ONE ELECTRON ENERGY =      -9.7139311098
                TWO ELECTRON ENERGY =       2.2819042249
           NUCLEAR REPULSION ENERGY =       0.0000000000
                                      ------------------
                       TOTAL ENERGY =      -7.4320268848

 ELECTRON-ELECTRON POTENTIAL ENERGY =       2.2819042249
  NUCLEUS-ELECTRON POTENTIAL ENERGY =     -17.1462103511
   NUCLEUS-NUCLEUS POTENTIAL ENERGY =       0.0000000000
                                      ------------------
             TOTAL POTENTIAL ENERGY =     -14.8643061262
               TOTAL KINETIC ENERGY =       7.4322792414
                 VIRIAL RATIO (V/T) =       1.9999660459

          ---------------------------------------
          MULLIKEN AND LOWDIN POPULATION ANALYSES
          ---------------------------------------

     ATOMIC MULLIKEN POPULATION IN EACH MOLECULAR ORBITAL
        ALPHA ORBITALS

                      1          2

                  1.000000   1.000000

    1             1.000000   1.000000

     ATOMIC MULLIKEN POPULATION IN EACH MOLECULAR ORBITAL
         BETA ORBITALS

                      1

                  1.000000

    1             1.000000

     ATOMIC SPIN POPULATION (ALPHA MINUS BETA)
       ATOM         MULL.POP.                    LOW.POP.
    1 LI            1.000000                     1.000000


          ********* ALL ELECTRONS ********

               ----- POPULATIONS IN EACH AO -----
                             MULLIKEN      LOWDIN
              1  LI 1  S      1.20095     1.11630
              2  LI 1  S      0.79322     0.86715
              3  LI 1  X      0.00000     0.00000
              4  LI 1  Y      0.00000     0.00000
              5  LI 1  Z      0.00000     0.00000
              6  LI 1  S      0.64559     0.56173
              7  LI 1  X      0.00000     0.00000
              8  LI 1  Y      0.00000     0.00000
              9  LI 1  Z      0.00000     0.00000
             10  LI 1  S      0.35940     0.38189
             11  LI 1  X      0.00000     0.00000
             12  LI 1  Y      0.00000     0.00000
             13  LI 1  Z      0.00000     0.00000
             14  LI 1  S      0.00084     0.07293
             15  LI 1  X      0.00000     0.00000
             16  LI 1  Y      0.00000     0.00000
             17  LI 1  Z      0.00000     0.00000

          ----- MULLIKEN ATOMIC OVERLAP POPULATIONS -----
          (OFF-DIAGONAL ELEMENTS NEED TO BE MULTIPLIED BY 2)

             1

    1    3.0000000

          TOTAL MULLIKEN AND LOWDIN ATOMIC POPULATIONS
       ATOM         MULL.POP.    CHARGE          LOW.POP.     CHARGE
    1 LI            3.000000   -0.000000         3.000000   -0.000000

          -------------------------------
          BOND ORDER AND VALENCE ANALYSIS     BOND ORDER THRESHOLD=0.050
          -------------------------------

                   BOND                       BOND                       BOND
  ATOM PAIR DIST  ORDER      ATOM PAIR DIST  ORDER      ATOM PAIR DIST  ORDER

                       TOTAL       BONDED        FREE
      ATOM            VALENCE     VALENCE     VALENCE
    1 LI                1.000       0.000       1.000

          -----------------------------------------
          ATOMIC SPIN DENSITY AT THE NUCLEUS (A.U.)
          -----------------------------------------
                            SPIN DENS    ALPHA DENS     BETA DENS
    1  LI           3.0     0.2250847       6.63016       6.40508

          ---------------------
          ELECTROSTATIC MOMENTS
          ---------------------

 POINT   1           X           Y           Z (BOHR)    CHARGE
                 0.000000    0.000000    0.000000       -0.00 (A.U.)
         DX          DY          DZ         /D/  (DEBYE)
     0.000000    0.000000    0.000000    0.000000
 ...... END OF PROPERTY EVALUATION ......
 STEP CPU TIME =     0.00 TOTAL CPU TIME =          0.0 (      0.0 MIN)
 TOTAL WALL CLOCK TIME=          0.0 SECONDS, CPU UTILIZATION IS    66.67%
               580000  WORDS OF DYNAMIC MEMORY USED
 EXECUTION OF GAMESS TERMINATED NORMALLY Thu Jun 13 22:27:12 2019
 DDI: 263640 bytes (0.3 MB / 0 MWords) used by master data server.

 ----------------------------------------
 CPU timing information for all processes
 ========================================
 0: 0.24 + 0.04 = 0.28
 ----------------------------------------
 ddikick.x: exited gracefully.
----- accounting info -----
Files used on the master node amlan-PT-3420 were:
-rw-rw-r-- 1 akroy akroy   10760 Jun 13 22:27 /tmp/li_atom_6_311g_all.dat
-rw-rw-r-- 1 akroy akroy     250 Jun 13 22:27 /tmp/li_atom_6_311g_all.F05
-rw-rw-r-- 1 akroy akroy  180016 Jun 13 22:27 /tmp/li_atom_6_311g_all.F08
-rw-rw-r-- 1 akroy akroy 1930480 Jun 13 22:27 /tmp/li_atom_6_311g_all.F10
Thu Jun 13 22:27:15 IST 2019
0.0u 0.0s 0:03.13 0.6% 0+0k 0+16io 0pf+0w
