----- GAMESS execution script 'rungms' -----
This job is running on host amlan-PT-3420
under operating system Linux at Fri Dec 13 13:54:43 IST 2019
Available scratch disk space (Kbyte units) at beginning of the job is
Filesystem      1K-blocks     Used  Available Use% Mounted on
/dev/sda3      1916812448 68408352 1751012584   4% /
GAMESS temporary binary files will be written to /tmp
GAMESS supplementary output files will be written to /tmp
Copying input file h2_belyp.inp to your run's scratch directory...

 Distributed Data Interface kickoff program.
 Initiating 1 compute processes on 1 nodes to run the following command:
 /home/akroy/gamess/gamess.01.x h2_belyp 

          ******************************************************
          *         GAMESS VERSION = 30 SEP 2018 (R3)         *
          *             FROM IOWA STATE UNIVERSITY             *
          * M.W.SCHMIDT, K.K.BALDRIDGE, J.A.BOATZ, S.T.ELBERT, *
          *   M.S.GORDON, J.H.JENSEN, S.KOSEKI, N.MATSUNAGA,   *
          *          K.A.NGUYEN, S.J.SU, T.L.WINDUS,           *
          *       TOGETHER WITH M.DUPUIS, J.A.MONTGOMERY       *
          *         J.COMPUT.CHEM.  14, 1347-1363(1993)        *
          **************** 64 BIT LINUX VERSION ****************

  SINCE 1993, STUDENTS AND POSTDOCS WORKING AT IOWA STATE UNIVERSITY
  AND ALSO IN THEIR VARIOUS JOBS AFTER LEAVING ISU HAVE MADE IMPORTANT
  CONTRIBUTIONS TO THE CODE:
     IVANA ADAMOVIC, CHRISTINE AIKENS, YURI ALEXEEV, POOJA ARORA,
     ANDREY ASADCHEV, ROB BELL, PRADIPTA BANDYOPADHYAY, JONATHAN BENTZ,
     BRETT BODE, KURT BRORSEN, CALEB CARLIN, GALINA CHABAN, WEI CHEN,
     CHEOL HO CHOI, PAUL DAY, ALBERT DEFUSCO, NUWAN DESILVA, TIM DUDLEY,
     DMITRI FEDOROV, ALEX FINDLATER, GRAHAM FLETCHER, MARK FREITAG,
     KURT GLAESEMANN, ANASTASIA GUNINA,
     DAN KEMP, GRANT MERRILL, NORIYUKI MINEZAWA, JONATHAN MULLIN,
     TAKESHI NAGATA, SEAN NEDD, HEATHER NETZLOFF, BOSILJKA NJEGIC, RYAN OLSON,
     MIKE PAK, BUU PHAM,
     SPENCER PRUITT, LUKE ROSKOP, JIM SHOEMAKER, LYUDMILA SLIPCHENKO,
     TONY SMITH, SAROM SOK LEANG, JIE SONG, TETSUYA TAKETSUGU, SIMON WEBB,
     PENG XU, SOOHAENG YOO, FEDERICO ZAHARIEV

  ADDITIONAL CODE HAS BEEN PROVIDED BY COLLABORATORS IN OTHER GROUPS:
     IOWA STATE UNIVERSITY:
          JOE IVANIC, AARON WEST, LAIMUTIS BYTAUTAS, KLAUS RUEDENBERG
     UNIVERSITY OF TOKYO: KIMIHIKO HIRAO, TAKAHITO NAKAJIMA,
          TAKAO TSUNEDA, MUNEAKI KAMIYA, SUSUMU YANAGISAWA,
          KIYOSHI YAGI, MAHITO CHIBA, SEIKEN TOKURA, NAOAKI KAWAKAMI
     UNIVERSITY OF AARHUS: FRANK JENSEN
     UNIVERSITY OF IOWA: VISVALDAS KAIRYS, HUI LI
     NATIONAL INST. OF STANDARDS AND TECHNOLOGY: WALT STEVENS, DAVID GARMER
     UNIVERSITY OF PISA: BENEDETTA MENNUCCI, JACOPO TOMASI
     UNIVERSITY OF MEMPHIS: HENRY KURTZ, PRAKASHAN KORAMBATH
     UNIVERSITY OF ALBERTA: TOBY ZENG, MARIUSZ KLOBUKOWSKI
     UNIVERSITY OF NEW ENGLAND: MARK SPACKMAN
     MIE UNIVERSITY: HIROAKI UMEDA
     NAT. INST. OF ADVANCED INDUSTRIAL SCIENCE AND TECHNOLOGY: KAZUO KITAURA
     MICHIGAN STATE UNIVERSITY:
          KAROL KOWALSKI, MARTA WLOCH, JEFFREY GOUR, JESSE LUTZ,
          WEI LI, JUN SHEN, J. EMILIANO DEUSTUA, PIOTR PIECUCH
     UNIVERSITY OF MINNESOTA:
          YINAN SHU
     UNIVERSITY OF SILESIA: MONIKA MUSIAL, STANISLAW KUCHARSKI
     FACULTES UNIVERSITAIRES NOTRE-DAME DE LA PAIX:
          OLIVIER QUINET, BENOIT CHAMPAGNE
     UNIVERSITY OF CALIFORNIA - SANTA BARBARA: BERNARD KIRTMAN
     INSTITUTE FOR MOLECULAR SCIENCE:
          KAZUYA ISHIMURA, MICHIO KATOUDA, AND SHIGERU NAGASE
     UNIVERSITY OF NOTRE DAME: ANNA POMOGAEVA, DAN CHIPMAN
     KYUSHU UNIVERSITY:
          HARUYUKI NAKANO,
          FENG LONG GU, JACEK KORCHOWIEC, MARCIN MAKOWSKI, AND YURIKO AOKI,
          HIROTOSHI MORI AND EISAKU MIYOSHI
     PENNSYLVANIA STATE UNIVERSITY:
          TZVETELIN IORDANOV, CHET SWALINA, JONATHAN SKONE,
          SHARON HAMMES-SCHIFFER
     WASEDA UNIVERSITY:
          MASATO KOBAYASHI, TOMOKO AKAMA, TSUGUKI TOUMA,
          TAKESHI YOSHIKAWA, YASUHIRO IKABATA, JUNJI SEINO,
          YUYA NAKAJIMA, HIROMI NAKAI
     NANJING UNIVERSITY: SHUHUA LI
     UNIVERSITY OF NEBRASKA:
          PEIFENG SU, DEJUN SI, NANDUN THELLAMUREGE, YALI WANG, HUI LI
     UNIVERSITY OF ZURICH: ROBERTO PEVERATI, KIM BALDRIDGE
     N. COPERNICUS UNIVERSITY AND JACKSON STATE UNIVERSITY:
          MARIA BARYSZ
     UNIVERSITY OF COPENHAGEN: Jimmy Kromann, CASPER STEINMANN
     TOKYO INSTITUTE OF TECHNOLOGY: HIROYA NAKATA
     NAGOYA UNIVERSITY: YOSHIO NISHIMOTO, STEPHAN IRLE
     MOSCOW STATE UNIVERSITY: VLADIMIR MIRONOV

 EXECUTION OF GAMESS BEGUN Fri Dec 13 13:54:43 2019

            ECHO OF THE FIRST FEW INPUT CARDS -
 INPUT CARD> $CONTRL SCFTYP=UHF RUNTYP=ENERGY COORD=CART UNITS=ANGS MULT=1 $END             
 INPUT CARD> $SYSTEM MWORDS=200 $END                                                        
 INPUT CARD> $DFT METHOD=GRID DFTTYP=B3LYP $END                                             
 INPUT CARD> $BASIS EXTFIL=.TRUE. GBASIS=6311GDS $END                                       
 INPUT CARD> $GUESS GUESS=HUCKEL $END                                                       
 INPUT CARD> $DATA                                                                          
 INPUT CARD>H2                                                                              
 INPUT CARD>C1                                                                              
 INPUT CARD>H   1.0   0.0000   0.0000   0.0000                                              
 INPUT CARD>H   1.0   0.0000   0.0000   0.7414                                              
 INPUT CARD> $END                                                                           
 INPUT CARD>~                                                                               
  200000000 WORDS OF MEMORY AVAILABLE


                    * * * WARNING * * *
 OLD KEYWORD COORD=CART SELECTED, AUTOMATICALLY CHANGED TO COORD=PRINAXIS.
 YOUR MOLECULE'S COORDINATES WILL BE CHANGED TO PRINCIPAL AXES BY
   A) TRANSLATION TO THE CENTER OF MASS, THEN
   B) ROTATION TO HAVE A DIAGONAL MOMENT OF INERTIA TENSOR.

 HOWEVER, NOTHING ELSE IN YOUR INPUT WILL BE ROTATED IN THE SAME WAY,
 SO IF YOU HAVE A $VEC, $VIB, $GRAD, $HESS, EFP PARTICLE COORDINATES,
 OR ANYTHING ELSE THAT DEPENDS ON THE INITIAL ORIENTATION, THAT DATA
 WILL NOT BE USED CORRECTLY IN THIS RUN.

 THE PURPOSE OF COORD=PRINAXIS IS TO BE USED ONCE, ONLY AT THE VERY
 BEGINNING OF A SERIES OF COMPUTATIONS, PERHAPS TO FIND THE SYMMETRY
 UNIQUE ATOMS FROM AN ARBITRARY INITIAL ORIENTATION.

 AFTER THE FIRST RUN, YOU SHOULD USE ONLY COORD=UNIQUE, TO ENSURE THAT
 THE COORDINATES WHICH YOU READ IN ARE THE COORDINATES THAT ARE USED.


     $BASIS REQUESTS READING THE "6311GDS " BASIS SET FROM AN EXTERNAL FILE


     RUN TITLE
     ---------
 H2                                                                              

 THE POINT GROUP OF THE MOLECULE IS C1      
 THE ORDER OF THE PRINCIPAL AXIS IS     0

 THE MOMENTS OF INERTIA ARE (AMU-ANGSTROM**2)
 IXX=     0.277   IYY=     0.277   IZZ=     0.000

 THE EXTERNAL BASIS SET FILE BEING READ IS
     "/home/akroy/gamess/EXTFILE.txt"

 ATOM      ATOMIC                      COORDINATES (BOHR)
           CHARGE         X                   Y                   Z
 H           1.0     0.0000000000        0.0000000000       -0.7005214236
 H           1.0     0.0000000000        0.0000000000        0.7005214236

          INTERNUCLEAR DISTANCES (ANGS.)
          ------------------------------

                1 H          2 H     

   1 H       0.0000000    0.7414000 *
   2 H       0.7414000 *  0.0000000  

  * ... LESS THAN  3.000


     ATOMIC BASIS SET
     ----------------
 THE CONTRACTED PRIMITIVE FUNCTIONS HAVE BEEN UNNORMALIZED
 THE CONTRACTED BASIS FUNCTIONS ARE NOW NORMALIZED TO UNITY

  SHELL TYPE  PRIMITIVE        EXPONENT          CONTRACTION COEFFICIENT(S)

 H         

      1   S       1            33.8650000    0.025493814541
      1   S       2             5.0947900    0.190373108582
      1   S       3             1.1587900    0.852161486043

      2   S       4             0.3258400    1.000000000000

      3   S       5             0.1027410    1.000000000000

      4   S       6             0.0360000    1.000000000000

      5   P       7             0.7500000    1.000000000000

 H         

      6   S       8            33.8650000    0.025493814541
      6   S       9             5.0947900    0.190373108582
      6   S      10             1.1587900    0.852161486043

      7   S      11             0.3258400    1.000000000000

      8   S      12             0.1027410    1.000000000000

      9   S      13             0.0360000    1.000000000000

     10   P      14             0.7500000    1.000000000000

 TOTAL NUMBER OF BASIS SET SHELLS             =   10
 NUMBER OF CARTESIAN GAUSSIAN BASIS FUNCTIONS =   14
 NUMBER OF ELECTRONS                          =    2
 CHARGE OF MOLECULE                           =    0
 SPIN MULTIPLICITY                            =    1
 NUMBER OF OCCUPIED ORBITALS (ALPHA)          =    1
 NUMBER OF OCCUPIED ORBITALS (BETA )          =    1
 TOTAL NUMBER OF ATOMS                        =    2
 THE NUCLEAR REPULSION ENERGY IS        0.7137540454

 THIS MOLECULE IS RECOGNIZED AS BEING LINEAR,
 ORBITAL LZ DEGENERACY TOLERANCE ETOLLZ= 1.00E-06

 *** WARNING ***
 KEYWORD DFTTYP IN $DFT IS NOW OBSOLETE.
 PLEASE ENTER DFTTYP IN THE $CONTRL GROUP IN FUTURE INPUT FILES.


     LEBEDEV GRID-BASED DFT OPTIONS
     ------------------------------
     DFTTYP=B3LYP   
     NRAD  =      96     NLEB  =     302
     NRAD0 =      24     NLEB0 =     110
     SWOFF =    5.00E-03 (PURE SCF -> DFT)
     SWITCH=    3.00E-04 (COARSE -> TIGHT GRID)
     THRESH=    0.00E+00 GTHRE=    1.00E+00

 GRIMME'S EMPIRICAL DISPERSION CORRECTION= F

     $CONTRL OPTIONS
     ---------------
 SCFTYP=UHF          RUNTYP=ENERGY       EXETYP=RUN     
 MPLEVL=       0     CITYP =NONE         CCTYP =NONE         VBTYP =NONE    
 DFTTYP=B3LYP        TDDFT =NONE    
 MULT  =       1     ICHARG=       0     NZVAR =       0     COORD =PRINAXIS
 PP    =NONE         RELWFN=NONE         LOCAL =NONE         NUMGRD=       F
 ISPHER=      -1     NOSYM =       0     MAXIT =      30     UNITS =ANGS    
 PLTORB=       F     MOLPLT=       F     AIMPAC=       F     FRIEND=        
 NPRINT=       7     IREST =       0     GEOM  =INPUT   
 NORMF =       0     NORMP =       0     ITOL  =      20     ICUT  =       9
 INTTYP=BEST         GRDTYP=BEST         QMTTOL= 1.0E-06

     $SYSTEM OPTIONS
     ---------------
  REPLICATED MEMORY=   200000000 WORDS (ON EVERY NODE).
 DISTRIBUTED MEMDDI=           0 MILLION WORDS IN AGGREGATE,
 MEMDDI DISTRIBUTED OVER   1 PROCESSORS IS           0 WORDS/PROCESSOR.
 TOTAL MEMORY REQUESTED ON EACH PROCESSOR=   200000000 WORDS.
 TIMLIM=      525600.00 MINUTES, OR     365.0 DAYS.
 PARALL= F  BALTYP=  DLB     KDIAG=    0  COREFL= F
 MXSEQ2=     300 MXSEQ3=     150  mem10=         0

          ----------------
          PROPERTIES INPUT
          ----------------

     MOMENTS            FIELD           POTENTIAL          DENSITY
 IEMOM =       1   IEFLD =       0   IEPOT =       0   IEDEN =       0
 WHERE =COMASS     WHERE =NUCLEI     WHERE =NUCLEI     WHERE =NUCLEI  
 OUTPUT=BOTH       OUTPUT=BOTH       OUTPUT=BOTH       OUTPUT=BOTH    
 IEMINT=       0   IEFINT=       0                     IEDINT=       0
                                                       MORB  =       0
          EXTRAPOLATION IN EFFECT
          DIIS IN EFFECT
          DIIS or SOSCF will be reset if energy rises
 ORBITAL PRINTING OPTION: NPREO=     1    14     2     1

     -------------------------------
     INTEGRAL TRANSFORMATION OPTIONS
     -------------------------------
     NWORD  =            0
     CUTOFF = 1.0E-09     MPTRAN =       0
     DIRTRF =       F     AOINTS =DUP     

          ----------------------
          INTEGRAL INPUT OPTIONS
          ----------------------
 NOPK  =       1 NORDER=       0 SCHWRZ=       F

     ------------------------------------------
     THE POINT GROUP IS C1 , NAXIS= 0, ORDER= 1
     ------------------------------------------

     DIMENSIONS OF THE SYMMETRY SUBSPACES ARE
 A   =   14

 ..... DONE SETTING UP THE RUN .....
 STEP CPU TIME =     0.00 TOTAL CPU TIME =          0.0 (      0.0 MIN)
 TOTAL WALL CLOCK TIME=          0.0 SECONDS, CPU UTILIZATION IS     0.00%

          ********************
          1 ELECTRON INTEGRALS
          ********************
 ...... END OF ONE-ELECTRON INTEGRALS ......
 STEP CPU TIME =     0.01 TOTAL CPU TIME =          0.0 (      0.0 MIN)
 TOTAL WALL CLOCK TIME=          0.0 SECONDS, CPU UTILIZATION IS   100.00%

          -------------
          GUESS OPTIONS
          -------------
          GUESS =HUCKEL            NORB  =       0          NORDER=       0
          MIX   =       F          PRTMO =       F          PUNMO =       F
          TOLZ  = 1.0E-08          TOLE  = 1.0E-05
          SYMDEN=       F          PURIFY=       F

 INITIAL GUESS ORBITALS GENERATED BY HUCKEL   ROUTINE.
 HUCKEL GUESS REQUIRES      2898 WORDS.

 SYMMETRIES FOR INITIAL GUESS ORBITALS FOLLOW.  ALPHA SET(S).
     1 ORBITALS ARE OCCUPIED (    0 CORE ORBITALS).
     1=A        2=A        3=A        4=A        5=A        6=A        7=A   
     8=A        9=A       10=A       11=A   

 SYMMETRIES FOR INITIAL GUESS ORBITALS FOLLOW.   BETA SET(S).
     1 ORBITALS ARE OCCUPIED (    0 CORE ORBITALS).
     1=A        2=A        3=A        4=A        5=A        6=A        7=A   
     8=A        9=A       10=A       11=A   
 ...... END OF INITIAL ORBITAL SELECTION ......
 STEP CPU TIME =     0.00 TOTAL CPU TIME =          0.0 (      0.0 MIN)
 TOTAL WALL CLOCK TIME=          0.0 SECONDS, CPU UTILIZATION IS   100.00%

                    ----------------------
                    AO INTEGRAL TECHNOLOGY
                    ----------------------
     S,P,L SHELL ROTATED AXIS INTEGRALS, REPROGRAMMED BY
        KAZUYA ISHIMURA (IMS) AND JOSE SIERRA (SYNSTAR).
     S,P,D,L SHELL ROTATED AXIS INTEGRALS PROGRAMMED BY
        KAZUYA ISHIMURA (INSTITUTE FOR MOLECULAR SCIENCE).
     S,P,D,F,G SHELL TO TOTAL QUARTET ANGULAR MOMENTUM SUM 5,
        ERIC PROGRAM BY GRAHAM FLETCHER (ELORET AND NASA ADVANCED
        SUPERCOMPUTING DIVISION, AMES RESEARCH CENTER).
     S,P,D,F,G,L SHELL GENERAL RYS QUADRATURE PROGRAMMED BY
        MICHEL DUPUIS (PACIFIC NORTHWEST NATIONAL LABORATORY).

          --------------------
          2 ELECTRON INTEGRALS
          --------------------

 THE -PK- OPTION IS OFF, THE INTEGRALS ARE NOT IN SUPERMATRIX FORM.
 STORING   15000 INTEGRALS/RECORD ON DISK, USING 12 BYTES/INTEGRAL.
 TWO ELECTRON INTEGRAL EVALUATION REQUIRES   89411 WORDS OF MEMORY.
 II,JST,KST,LST =  1  1  1  1 NREC =         1 INTLOC =    1
 II,JST,KST,LST =  2  1  1  1 NREC =         1 INTLOC =    2
 II,JST,KST,LST =  3  1  1  1 NREC =         1 INTLOC =    7
 II,JST,KST,LST =  4  1  1  1 NREC =         1 INTLOC =   22
 II,JST,KST,LST =  5  1  1  1 NREC =         1 INTLOC =   56
 II,JST,KST,LST =  6  1  1  1 NREC =         1 INTLOC =  125
 II,JST,KST,LST =  7  1  1  1 NREC =         1 INTLOC =  260
 II,JST,KST,LST =  8  1  1  1 NREC =         1 INTLOC =  463
 II,JST,KST,LST =  9  1  1  1 NREC =         1 INTLOC =  755
 II,JST,KST,LST = 10  1  1  1 NREC =         1 INTLOC = 1160
 TOTAL NUMBER OF NONZERO TWO-ELECTRON INTEGRALS =                2201
          1 INTEGRAL RECORDS WERE STORED ON DISK FILE  8.
  ...... END OF TWO-ELECTRON INTEGRALS .....
 STEP CPU TIME =     0.01 TOTAL CPU TIME =          0.0 (      0.0 MIN)
 TOTAL WALL CLOCK TIME=          0.0 SECONDS, CPU UTILIZATION IS   100.00%

          ---------------------------
              U-B3LYP SCF CALCULATION
          ---------------------------

     NUCLEAR ENERGY =         0.7137540454
     MAXIT = 30     NPUNCH=  2     MULT=  1
     EXTRAP=T  DAMP=F  SHIFT=F  RSTRCT=F  DIIS=T  SOSCF=F
         DENSITY MATRIX CONVERGENCE THRESHOLD=  1.00E-05
     COARSE -> FINE DFT GRID SWITCH THRESHOLD=  3.00E-04 (SWITCH IN $DFT)
                   HF -> DFT SWITCH THRESHOLD=  5.00E-03 (SWOFF IN $DFT)
     MEMORY REQUIRED FOR UHF/ROHF ITERS=    136032 WORDS.

 DFT CODE IS SWITCHING FROM THE FINE GRID NRAD= 96,  NLEB=  302
                      TO THE COARSE GRID NRAD0= 24, NLEB0=  110

     EXCHANGE FUNCTIONAL   =B88&HFX   
     CORRELATION FUNCTIONAL=LYP88&VWN5
     DFT THRESHOLD         =.690E-07
     GRID CHANGE THRESHOLD =.300E-03
 FOR AN EULER-MACLAURIN QUADRATURE USING  96 RADIAL POINTS:
 SMALLEST GAUSSIAN PRIMITIVE EXPONENT=        0.0360000000 OF TYPE -S-
 ON ATOM NUMBER   1 HAS RADIAL NORMALIZATION=  1.000000
  LARGEST GAUSSIAN PRIMITIVE EXPONENT=       33.8650000000 OF TYPE -S-
 ON ATOM NUMBER   1 HAS RADIAL NORMALIZATION=  1.000000
 DFT IS SWITCHED OFF, PERFORMING PURE SCF UNTIL SWOFF THRESHOLD IS REACHED.

 ITER EX      TOTAL ENERGY        E CHANGE  DENSITY CHANGE    DIIS ERROR
          * * *   INITIATING DIIS PROCEDURE   * * *
   1  0       -1.1217927077    -1.1217927077   0.034438710   0.146639928
   2  1       -1.1319435497    -0.0101508420   0.010805779   0.028812174
   3  2       -1.1324775574    -0.0005340077   0.000967771   0.001415431
 CONVERGED TO SWOFF, SO DFT CALCULATION IS NOW SWITCHED ON.
          * * *   INITIATING DIIS PROCEDURE   * * *
   4  3       -1.1721335250    -0.0396559676   0.014825028   0.041903232
   5  4       -1.1728141389    -0.0006806139   0.000771948   0.002136260
   6  5       -1.1728162024    -0.0000020635   0.000022867   0.000071972
 DFT CODE IS SWITCHING BACK TO THE FINE GRID
          * * *   INITIATING DIIS PROCEDURE   * * *
   7  6       -1.1728089238     0.0000072785   0.000099874   0.000133720
   8  7       -1.1728089342    -0.0000000103   0.000002802   0.000011446
   9  8       -1.1728089342    -0.0000000001   0.000000559   0.000002623
  10  9       -1.1728089342    -0.0000000000   0.000000014   0.000000023

          -----------------
          DENSITY CONVERGED
          -----------------
     TIME TO FORM FOCK OPERATORS=       0.4 SECONDS (       0.0 SEC/ITER)
     TIME TO SOLVE SCF EQUATIONS=       0.0 SECONDS (       0.0 SEC/ITER)

 FINAL U-B3LYP ENERGY IS       -1.1728089342 AFTER  10 ITERATIONS
 DFT EXCHANGE + CORRELATION ENERGY =        -0.5665967676
 TOTAL ELECTRON NUMBER             =         1.9999999892

          --------------------
          SPIN SZ   =    0.000
          S-SQUARED =    0.000
          --------------------

 LZ VALUE ANALYSIS FOR THE MOS
 ----------------------------------------
 MO     1 (    1) HAS LZ(WEIGHT)= 0.00(100.0%) 
 MO     2 (    2) HAS LZ(WEIGHT)= 0.00(100.0%) 
 MO     3 (    3) HAS LZ(WEIGHT)= 0.00(100.0%) 
 MO     4 (    4) HAS LZ(WEIGHT)= 0.00(100.0%) 
 MO     5 (    5) HAS LZ(WEIGHT)= 0.00(100.0%) 
 MO     6 (    6) HAS LZ(WEIGHT)= 0.00(100.0%) 
 MO     7 (    7) HAS LZ(WEIGHT)=-1.00( 50.0%)  1.00( 50.0%) 
 MO     8 (    7) HAS LZ(WEIGHT)=-1.00( 50.0%)  1.00( 50.0%) 
 MO     9 (    8) HAS LZ(WEIGHT)= 0.00(100.0%) 
 MO    10 (    9) HAS LZ(WEIGHT)=-1.00( 50.0%)  1.00( 50.0%) 
 MO    11 (    9) HAS LZ(WEIGHT)=-1.00( 50.0%)  1.00( 50.0%) 
 MO    12 (   10) HAS LZ(WEIGHT)= 0.00(100.0%) 
 MO    13 (   11) HAS LZ(WEIGHT)= 0.00(100.0%) 
 MO    14 (   12) HAS LZ(WEIGHT)= 0.00(100.0%) 

  ----- ALPHA SET ----- 

          ------------
          EIGENVECTORS
          ------------

                      1          2          3          4          5
                   -0.4311     0.0228     0.0339     0.1472     0.3477
                     A          A          A          A          A   
    1  H  1  S    0.197139  -0.048960  -0.065047   0.098310  -0.077433
    2  H  1  S    0.272281  -0.192496  -0.047059   0.014964  -0.841576
    3  H  1  S    0.143459  -0.322438  -0.413120   2.906627   1.507163
    4  H  1  S   -0.000680  -3.091976   0.779999  -4.512312  -0.731372
    5  H  1  X   -0.000000   0.000000   0.000000   0.000000   0.000000
    6  H  1  Y   -0.000000   0.000000   0.000000   0.000000   0.000000
    7  H  1  Z    0.018939   0.008125  -0.013380  -0.062086  -0.012016
    8  H  2  S    0.197139   0.048954  -0.065045  -0.098315  -0.077436
    9  H  2  S    0.272291   0.192505  -0.047057  -0.014940  -0.841632
   10  H  2  S    0.143442   0.322425  -0.413083  -2.906669   1.507201
   11  H  2  S   -0.000632   3.091978   0.779961   4.512338  -0.731325
   12  H  2  X   -0.000000   0.000000   0.000000   0.000000   0.000000
   13  H  2  Y   -0.000000   0.000000   0.000000   0.000000   0.000000
   14  H  2  Z   -0.018943   0.008125   0.013379  -0.062084   0.012023

                      6          7          8          9         10
                    0.5665     1.0882     1.0882     1.6164     1.8320
                     A          A          A          A          A   
    1  H  1  S   -0.134719   0.000000  -0.000000  -0.246971   0.000000
    2  H  1  S   -2.044937   0.000000  -0.000000   0.810841   0.000000
    3  H  1  S    3.963715   0.000000  -0.000000  -0.646962   0.000000
    4  H  1  S   -2.760148   0.000000  -0.000000   0.216593   0.000000
    5  H  1  X   -0.000000   0.245301   0.527161   0.000000  -0.979557
    6  H  1  Y   -0.000000   0.527161  -0.245301   0.000000  -0.011204
    7  H  1  Z   -0.129529   0.000000  -0.000000  -0.635809   0.000000
    8  H  2  S    0.134711   0.000000  -0.000000  -0.246978   0.000000
    9  H  2  S    2.044926   0.000000  -0.000000   0.810867   0.000000
   10  H  2  S   -3.963687   0.000000  -0.000000  -0.646960   0.000000
   11  H  2  S    2.760134   0.000000  -0.000000   0.216573   0.000000
   12  H  2  X   -0.000000   0.245300   0.527160   0.000000   0.979557
   13  H  2  Y   -0.000000   0.527160  -0.245300   0.000000   0.011204
   14  H  2  Z   -0.129528   0.000000  -0.000000   0.635798   0.000000

                     11         12         13         14
                    1.8320     2.0469     2.4890     3.3294
                     A          A          A          A   
    1  H  1  S   -0.000000   0.632320  -1.144826   1.082313
    2  H  1  S   -0.000000  -3.866413   1.244291   1.829114
    3  H  1  S   -0.000000   2.725914  -0.739270  -0.332390
    4  H  1  S   -0.000000  -1.491513   0.251798   0.066320
    5  H  1  X    0.011204   0.000000   0.000000  -0.000000
    6  H  1  Y   -0.979557   0.000000   0.000000  -0.000000
    7  H  1  Z   -0.000000  -1.394203   0.343914   1.932305
    8  H  2  S   -0.000000  -0.632350  -1.144803  -1.082319
    9  H  2  S   -0.000000   3.866438   1.244183  -1.829107
   10  H  2  S   -0.000000  -2.725925  -0.739170   0.332385
   11  H  2  S   -0.000000   1.491516   0.251719  -0.066318
   12  H  2  X   -0.011204   0.000000   0.000000  -0.000000
   13  H  2  Y    0.979557   0.000000   0.000000  -0.000000
   14  H  2  Z   -0.000000  -1.394219  -0.343884   1.932303

 LZ VALUE ANALYSIS FOR THE MOS
 ----------------------------------------
 MO     1 (    1) HAS LZ(WEIGHT)= 0.00(100.0%) 
 MO     2 (    2) HAS LZ(WEIGHT)= 0.00(100.0%) 
 MO     3 (    3) HAS LZ(WEIGHT)= 0.00(100.0%) 
 MO     4 (    4) HAS LZ(WEIGHT)= 0.00(100.0%) 
 MO     5 (    5) HAS LZ(WEIGHT)= 0.00(100.0%) 
 MO     6 (    6) HAS LZ(WEIGHT)= 0.00(100.0%) 
 MO     7 (    7) HAS LZ(WEIGHT)=-1.00( 50.0%)  1.00( 50.0%) 
 MO     8 (    7) HAS LZ(WEIGHT)=-1.00( 50.0%)  1.00( 50.0%) 
 MO     9 (    8) HAS LZ(WEIGHT)= 0.00(100.0%) 
 MO    10 (    9) HAS LZ(WEIGHT)=-1.00( 50.0%)  1.00( 50.0%) 
 MO    11 (    9) HAS LZ(WEIGHT)=-1.00( 50.0%)  1.00( 50.0%) 
 MO    12 (   10) HAS LZ(WEIGHT)= 0.00(100.0%) 
 MO    13 (   11) HAS LZ(WEIGHT)= 0.00(100.0%) 
 MO    14 (   12) HAS LZ(WEIGHT)= 0.00(100.0%) 

  ----- BETA SET ----- 

          ------------
          EIGENVECTORS
          ------------

                      1          2          3          4          5
                   -0.4311     0.0228     0.0339     0.1472     0.3477
                     A          A          A          A          A   
    1  H  1  S    0.197139  -0.048960  -0.065047   0.098310  -0.077433
    2  H  1  S    0.272281  -0.192496  -0.047059   0.014964  -0.841576
    3  H  1  S    0.143459  -0.322438  -0.413120   2.906627   1.507163
    4  H  1  S   -0.000680  -3.091976   0.779999  -4.512312  -0.731372
    5  H  1  X   -0.000000   0.000000   0.000000   0.000000   0.000000
    6  H  1  Y   -0.000000   0.000000   0.000000   0.000000   0.000000
    7  H  1  Z    0.018939   0.008125  -0.013380  -0.062086  -0.012016
    8  H  2  S    0.197139   0.048954  -0.065045  -0.098315  -0.077436
    9  H  2  S    0.272291   0.192505  -0.047057  -0.014940  -0.841632
   10  H  2  S    0.143442   0.322425  -0.413083  -2.906669   1.507201
   11  H  2  S   -0.000632   3.091978   0.779961   4.512338  -0.731325
   12  H  2  X   -0.000000   0.000000   0.000000   0.000000   0.000000
   13  H  2  Y   -0.000000   0.000000   0.000000   0.000000   0.000000
   14  H  2  Z   -0.018943   0.008125   0.013379  -0.062084   0.012023

                      6          7          8          9         10
                    0.5665     1.0882     1.0882     1.6164     1.8320
                     A          A          A          A          A   
    1  H  1  S   -0.134719   0.000000  -0.000000  -0.246971  -0.000000
    2  H  1  S   -2.044937   0.000000  -0.000000   0.810841  -0.000000
    3  H  1  S    3.963715   0.000000  -0.000000  -0.646962  -0.000000
    4  H  1  S   -2.760148   0.000000  -0.000000   0.216593  -0.000000
    5  H  1  X   -0.000000   0.459669   0.356055   0.000000  -0.978454
    6  H  1  Y   -0.000000  -0.356055   0.459669   0.000000   0.047800
    7  H  1  Z   -0.129529   0.000000  -0.000000  -0.635809  -0.000000
    8  H  2  S    0.134711   0.000000  -0.000000  -0.246978  -0.000000
    9  H  2  S    2.044926   0.000000  -0.000000   0.810867  -0.000000
   10  H  2  S   -3.963687   0.000000  -0.000000  -0.646960  -0.000000
   11  H  2  S    2.760134   0.000000  -0.000000   0.216573  -0.000000
   12  H  2  X   -0.000000   0.459669   0.356055   0.000000   0.978454
   13  H  2  Y   -0.000000  -0.356055   0.459669   0.000000  -0.047800
   14  H  2  Z   -0.129528   0.000000  -0.000000   0.635798  -0.000000

                     11         12         13         14
                    1.8320     2.0469     2.4890     3.3294
                     A          A          A          A   
    1  H  1  S    0.000000   0.632320  -1.144826   1.082313
    2  H  1  S    0.000000  -3.866413   1.244291   1.829114
    3  H  1  S    0.000000   2.725914  -0.739270  -0.332390
    4  H  1  S    0.000000  -1.491513   0.251798   0.066320
    5  H  1  X   -0.047800   0.000000   0.000000  -0.000000
    6  H  1  Y   -0.978454   0.000000   0.000000  -0.000000
    7  H  1  Z    0.000000  -1.394203   0.343914   1.932305
    8  H  2  S    0.000000  -0.632350  -1.144803  -1.082319
    9  H  2  S    0.000000   3.866438   1.244183  -1.829107
   10  H  2  S    0.000000  -2.725925  -0.739170   0.332385
   11  H  2  S    0.000000   1.491516   0.251719  -0.066318
   12  H  2  X    0.047800   0.000000   0.000000  -0.000000
   13  H  2  Y    0.978454   0.000000   0.000000  -0.000000
   14  H  2  Z    0.000000  -1.394219  -0.343884   1.932303
 ...... END OF UHF CALCULATION ......
 STEP CPU TIME =     0.38 TOTAL CPU TIME =          0.4 (      0.0 MIN)
 TOTAL WALL CLOCK TIME=          0.4 SECONDS, CPU UTILIZATION IS   100.00%

     ---------------------------------------------------------------------
     PROPERTIES FOR THE B3LYP    DFT FUNCTIONAL (UHF  TYPE) DENSITY MATRIX
     ---------------------------------------------------------------------

          -----------------
          ENERGY COMPONENTS
          -----------------

         WAVEFUNCTION NORMALIZATION =       1.0000000000

                ONE ELECTRON ENERGY =      -2.5024404730
                TWO ELECTRON ENERGY =       0.6158774934
           NUCLEAR REPULSION ENERGY =       0.7137540454
                                      ------------------
                       TOTAL ENERGY =      -1.1728089342

 ELECTRON-ELECTRON POTENTIAL ENERGY =       0.6158774934
  NUCLEUS-ELECTRON POTENTIAL ENERGY =      -3.6410647524
   NUCLEUS-NUCLEUS POTENTIAL ENERGY =       0.7137540454
                                      ------------------
             TOTAL POTENTIAL ENERGY =      -2.3114332136
               TOTAL KINETIC ENERGY =       1.1386242794
                 VIRIAL RATIO (V/T) =       2.0300227700

          ---------------------------------------
          MULLIKEN AND LOWDIN POPULATION ANALYSES
          ---------------------------------------

     ATOMIC MULLIKEN POPULATION IN EACH MOLECULAR ORBITAL
        ALPHA ORBITALS

                      1

                  1.000000

    1             0.499988
    2             0.500012

     ATOMIC MULLIKEN POPULATION IN EACH MOLECULAR ORBITAL
         BETA ORBITALS

                      1

                  1.000000

    1             0.499988
    2             0.500012

     ATOMIC SPIN POPULATION (ALPHA MINUS BETA)
       ATOM         MULL.POP.                    LOW.POP.
    1 H            -0.000000                     0.000000
    2 H             0.000000                    -0.000000


          ********* ALL ELECTRONS ********

               ----- POPULATIONS IN EACH AO -----
                             MULLIKEN      LOWDIN
              1  H  1  S      0.26285     0.25012
              2  H  1  S      0.49588     0.43363
              3  H  1  S      0.23196     0.24091
              4  H  1  S     -0.00074     0.05261
              5  H  1  X      0.00000     0.00000
              6  H  1  Y      0.00000     0.00000
              7  H  1  Z      0.01003     0.02273
              8  H  2  S      0.26285     0.25012
              9  H  2  S      0.49590     0.43364
             10  H  2  S      0.23193     0.24091
             11  H  2  S     -0.00069     0.05261
             12  H  2  X      0.00000     0.00000
             13  H  2  Y      0.00000     0.00000
             14  H  2  Z      0.01003     0.02273

          ----- MULLIKEN ATOMIC OVERLAP POPULATIONS -----
          (OFF-DIAGONAL ELEMENTS NEED TO BE MULTIPLIED BY 2)

             1           2

    1    0.5843254
    2    0.4156510   0.5843725

          TOTAL MULLIKEN AND LOWDIN ATOMIC POPULATIONS
       ATOM         MULL.POP.    CHARGE          LOW.POP.     CHARGE
    1 H             0.999976    0.000024         0.999995    0.000005
    2 H             1.000024   -0.000024         1.000005   -0.000005

          -------------------------------
          BOND ORDER AND VALENCE ANALYSIS     BOND ORDER THRESHOLD=0.050
          -------------------------------

                   BOND                       BOND                       BOND
  ATOM PAIR DIST  ORDER      ATOM PAIR DIST  ORDER      ATOM PAIR DIST  ORDER
    1   2  0.741  1.000

                       TOTAL       BONDED        FREE
      ATOM            VALENCE     VALENCE     VALENCE
    1 H                 1.000       1.000       0.000
    2 H                 1.000       1.000       0.000

          -----------------------------------------
          ATOMIC SPIN DENSITY AT THE NUCLEUS (A.U.)
          -----------------------------------------
                            SPIN DENS    ALPHA DENS     BETA DENS
    1  H            1.0     0.0000000       0.20795       0.20795
    2  H            1.0     0.0000000       0.20795       0.20795

          ---------------------
          ELECTROSTATIC MOMENTS
          ---------------------

 POINT   1           X           Y           Z (BOHR)    CHARGE
                 0.000000    0.000000    0.000000        0.00 (A.U.)
         DX          DY          DZ         /D/  (DEBYE)
     0.000000    0.000000   -0.000019    0.000019
 ...... END OF PROPERTY EVALUATION ......
 STEP CPU TIME =     0.00 TOTAL CPU TIME =          0.4 (      0.0 MIN)
 TOTAL WALL CLOCK TIME=          0.4 SECONDS, CPU UTILIZATION IS   100.00%
               580000  WORDS OF DYNAMIC MEMORY USED
 EXECUTION OF GAMESS TERMINATED NORMALLY Fri Dec 13 13:54:44 2019
 DDI: 263640 bytes (0.3 MB / 0 MWords) used by master data server.

 ----------------------------------------
 CPU timing information for all processes
 ========================================
 0: 0.404 + 0.00 = 0.404
 ----------------------------------------
 ddikick.x: exited gracefully.
----- accounting info -----
Files used on the master node amlan-PT-3420 were:
-rw-rw-r-- 1 akroy akroy    7875 Dec 13 13:54 /tmp/h2_belyp.dat
-rw-rw-r-- 1 akroy akroy     300 Dec 13 13:54 /tmp/h2_belyp.F05
-rw-rw-r-- 1 akroy akroy  180016 Dec 13 13:54 /tmp/h2_belyp.F08
-rw-rw-r-- 1 akroy akroy 1734160 Dec 13 13:54 /tmp/h2_belyp.F10
Fri Dec 13 13:54:47 IST 2019
0.0u 0.0s 0:03.48 0.5% 0+0k 0+16io 0pf+0w
