----- GAMESS execution script 'rungms' -----
This job is running on host amlan-PT-3420
under operating system Linux at Wed Jun 12 15:41:31 IST 2019
Available scratch disk space (Kbyte units) at beginning of the job is
Filesystem      1K-blocks     Used  Available Use% Mounted on
/dev/sda3      1916812448 56944236 1762476700   4% /
GAMESS temporary binary files will be written to /tmp
GAMESS supplementary output files will be written to /tmp
Copying input file bebe_atom_6_311g3df3pd_all.inp to your run's scratch directory...

 Distributed Data Interface kickoff program.
 Initiating 1 compute processes on 1 nodes to run the following command:
 /home/akroy/gamess/gamess.01.x bebe_atom_6_311g3df3pd_all 

          ******************************************************
          *         GAMESS VERSION = 30 SEP 2018 (R3)         *
          *             FROM IOWA STATE UNIVERSITY             *
          * M.W.SCHMIDT, K.K.BALDRIDGE, J.A.BOATZ, S.T.ELBERT, *
          *   M.S.GORDON, J.H.JENSEN, S.KOSEKI, N.MATSUNAGA,   *
          *          K.A.NGUYEN, S.J.SU, T.L.WINDUS,           *
          *       TOGETHER WITH M.DUPUIS, J.A.MONTGOMERY       *
          *         J.COMPUT.CHEM.  14, 1347-1363(1993)        *
          **************** 64 BIT LINUX VERSION ****************

  SINCE 1993, STUDENTS AND POSTDOCS WORKING AT IOWA STATE UNIVERSITY
  AND ALSO IN THEIR VARIOUS JOBS AFTER LEAVING ISU HAVE MADE IMPORTANT
  CONTRIBUTIONS TO THE CODE:
     IVANA ADAMOVIC, CHRISTINE AIKENS, YURI ALEXEEV, POOJA ARORA,
     ANDREY ASADCHEV, ROB BELL, PRADIPTA BANDYOPADHYAY, JONATHAN BENTZ,
     BRETT BODE, KURT BRORSEN, CALEB CARLIN, GALINA CHABAN, WEI CHEN,
     CHEOL HO CHOI, PAUL DAY, ALBERT DEFUSCO, NUWAN DESILVA, TIM DUDLEY,
     DMITRI FEDOROV, ALEX FINDLATER, GRAHAM FLETCHER, MARK FREITAG,
     KURT GLAESEMANN, ANASTASIA GUNINA,
     DAN KEMP, GRANT MERRILL, NORIYUKI MINEZAWA, JONATHAN MULLIN,
     TAKESHI NAGATA, SEAN NEDD, HEATHER NETZLOFF, BOSILJKA NJEGIC, RYAN OLSON,
     MIKE PAK, BUU PHAM,
     SPENCER PRUITT, LUKE ROSKOP, JIM SHOEMAKER, LYUDMILA SLIPCHENKO,
     TONY SMITH, SAROM SOK LEANG, JIE SONG, TETSUYA TAKETSUGU, SIMON WEBB,
     PENG XU, SOOHAENG YOO, FEDERICO ZAHARIEV

  ADDITIONAL CODE HAS BEEN PROVIDED BY COLLABORATORS IN OTHER GROUPS:
     IOWA STATE UNIVERSITY:
          JOE IVANIC, AARON WEST, LAIMUTIS BYTAUTAS, KLAUS RUEDENBERG
     UNIVERSITY OF TOKYO: KIMIHIKO HIRAO, TAKAHITO NAKAJIMA,
          TAKAO TSUNEDA, MUNEAKI KAMIYA, SUSUMU YANAGISAWA,
          KIYOSHI YAGI, MAHITO CHIBA, SEIKEN TOKURA, NAOAKI KAWAKAMI
     UNIVERSITY OF AARHUS: FRANK JENSEN
     UNIVERSITY OF IOWA: VISVALDAS KAIRYS, HUI LI
     NATIONAL INST. OF STANDARDS AND TECHNOLOGY: WALT STEVENS, DAVID GARMER
     UNIVERSITY OF PISA: BENEDETTA MENNUCCI, JACOPO TOMASI
     UNIVERSITY OF MEMPHIS: HENRY KURTZ, PRAKASHAN KORAMBATH
     UNIVERSITY OF ALBERTA: TOBY ZENG, MARIUSZ KLOBUKOWSKI
     UNIVERSITY OF NEW ENGLAND: MARK SPACKMAN
     MIE UNIVERSITY: HIROAKI UMEDA
     NAT. INST. OF ADVANCED INDUSTRIAL SCIENCE AND TECHNOLOGY: KAZUO KITAURA
     MICHIGAN STATE UNIVERSITY:
          KAROL KOWALSKI, MARTA WLOCH, JEFFREY GOUR, JESSE LUTZ,
          WEI LI, JUN SHEN, J. EMILIANO DEUSTUA, PIOTR PIECUCH
     UNIVERSITY OF MINNESOTA:
          YINAN SHU
     UNIVERSITY OF SILESIA: MONIKA MUSIAL, STANISLAW KUCHARSKI
     FACULTES UNIVERSITAIRES NOTRE-DAME DE LA PAIX:
          OLIVIER QUINET, BENOIT CHAMPAGNE
     UNIVERSITY OF CALIFORNIA - SANTA BARBARA: BERNARD KIRTMAN
     INSTITUTE FOR MOLECULAR SCIENCE:
          KAZUYA ISHIMURA, MICHIO KATOUDA, AND SHIGERU NAGASE
     UNIVERSITY OF NOTRE DAME: ANNA POMOGAEVA, DAN CHIPMAN
     KYUSHU UNIVERSITY:
          HARUYUKI NAKANO,
          FENG LONG GU, JACEK KORCHOWIEC, MARCIN MAKOWSKI, AND YURIKO AOKI,
          HIROTOSHI MORI AND EISAKU MIYOSHI
     PENNSYLVANIA STATE UNIVERSITY:
          TZVETELIN IORDANOV, CHET SWALINA, JONATHAN SKONE,
          SHARON HAMMES-SCHIFFER
     WASEDA UNIVERSITY:
          MASATO KOBAYASHI, TOMOKO AKAMA, TSUGUKI TOUMA,
          TAKESHI YOSHIKAWA, YASUHIRO IKABATA, JUNJI SEINO,
          YUYA NAKAJIMA, HIROMI NAKAI
     NANJING UNIVERSITY: SHUHUA LI
     UNIVERSITY OF NEBRASKA:
          PEIFENG SU, DEJUN SI, NANDUN THELLAMUREGE, YALI WANG, HUI LI
     UNIVERSITY OF ZURICH: ROBERTO PEVERATI, KIM BALDRIDGE
     N. COPERNICUS UNIVERSITY AND JACKSON STATE UNIVERSITY:
          MARIA BARYSZ
     UNIVERSITY OF COPENHAGEN: Jimmy Kromann, CASPER STEINMANN
     TOKYO INSTITUTE OF TECHNOLOGY: HIROYA NAKATA
     NAGOYA UNIVERSITY: YOSHIO NISHIMOTO, STEPHAN IRLE
     MOSCOW STATE UNIVERSITY: VLADIMIR MIRONOV

 EXECUTION OF GAMESS BEGUN Wed Jun 12 15:41:31 2019

            ECHO OF THE FIRST FEW INPUT CARDS -
 INPUT CARD> $CONTRL SCFTYP=RHF COORD=CART MULT=1 RUNTYP=ENERGY  $END                       
 INPUT CARD> $SYSTEM TIMLIM=2000 $END                                                       
 INPUT CARD> $DFT METHOD=GRID DFTTYP=NONE $END                                              
 INPUT CARD> $BASIS EXTFIL=.TRUE. GBASIS=6311G3DF $END                                      
 INPUT CARD> $GUESS GUESS=HUCKEL $END                                                       
 INPUT CARD> $DATA                                                                          
 INPUT CARD>BE                                                                              
 INPUT CARD>C1                                                                              
 INPUT CARD>BE   4.0   0.0000   0.0000   0.0000                                             
 INPUT CARD> $END                                                                           
 INPUT CARD>                                                                                
    1000000 WORDS OF MEMORY AVAILABLE


                    * * * WARNING * * *
 OLD KEYWORD COORD=CART SELECTED, AUTOMATICALLY CHANGED TO COORD=PRINAXIS.
 YOUR MOLECULE'S COORDINATES WILL BE CHANGED TO PRINCIPAL AXES BY
   A) TRANSLATION TO THE CENTER OF MASS, THEN
   B) ROTATION TO HAVE A DIAGONAL MOMENT OF INERTIA TENSOR.

 HOWEVER, NOTHING ELSE IN YOUR INPUT WILL BE ROTATED IN THE SAME WAY,
 SO IF YOU HAVE A $VEC, $VIB, $GRAD, $HESS, EFP PARTICLE COORDINATES,
 OR ANYTHING ELSE THAT DEPENDS ON THE INITIAL ORIENTATION, THAT DATA
 WILL NOT BE USED CORRECTLY IN THIS RUN.

 THE PURPOSE OF COORD=PRINAXIS IS TO BE USED ONCE, ONLY AT THE VERY
 BEGINNING OF A SERIES OF COMPUTATIONS, PERHAPS TO FIND THE SYMMETRY
 UNIQUE ATOMS FROM AN ARBITRARY INITIAL ORIENTATION.

 AFTER THE FIRST RUN, YOU SHOULD USE ONLY COORD=UNIQUE, TO ENSURE THAT
 THE COORDINATES WHICH YOU READ IN ARE THE COORDINATES THAT ARE USED.


     $BASIS REQUESTS READING THE "6311G3DF" BASIS SET FROM AN EXTERNAL FILE


     RUN TITLE
     ---------
 BE                                                                              

 THE POINT GROUP OF THE MOLECULE IS C1      
 THE ORDER OF THE PRINCIPAL AXIS IS     0

 THE MOMENTS OF INERTIA ARE (AMU-ANGSTROM**2)
 IXX=     0.000   IYY=     0.000   IZZ=     0.000

 THE EXTERNAL BASIS SET FILE BEING READ IS
     "/home/akroy/gamess/EXTFILE.txt"

 ATOM      ATOMIC                      COORDINATES (BOHR)
           CHARGE         X                   Y                   Z
 BE          4.0     0.0000000000        0.0000000000        0.0000000000

          INTERNUCLEAR DISTANCES (ANGS.)
          ------------------------------

                1 BE    

   1 BE      0.0000000  

  * ... LESS THAN  3.000


     ATOMIC BASIS SET
     ----------------
 THE CONTRACTED PRIMITIVE FUNCTIONS HAVE BEEN UNNORMALIZED
 THE CONTRACTED BASIS FUNCTIONS ARE NOW NORMALIZED TO UNITY

  SHELL TYPE  PRIMITIVE        EXPONENT          CONTRACTION COEFFICIENT(S)

 BE        

      1   S       1          1682.8000000    0.002285740532
      1   S       2           251.7150000    0.017593804095
      1   S       3            57.4116000    0.086331520094
      1   S       4            16.5171000    0.281835065598
      1   S       5             4.8536400    0.640594149100
      1   S       6             0.6268630    0.144467033625

      2   L       7             8.3093800    0.108621032318    0.036134403234
      2   L       8             1.7407500    0.927301275900    0.216958019416
      2   L       9             0.4858160   -0.002971690884    0.841839075337

      3   L      10             0.1636130    1.000000000000    1.000000000000

      4   L      11             0.0567285    1.000000000000    1.000000000000

      5   L      12             0.0207000    1.000000000000    1.000000000000

      6   D      13             1.0200000    1.000000000000

      7   D      14             0.2550000    1.000000000000

      8   D      15             0.0637500    1.000000000000

      9   F      16             0.2600000    1.000000000000

 TOTAL NUMBER OF BASIS SET SHELLS             =    9
 NUMBER OF CARTESIAN GAUSSIAN BASIS FUNCTIONS =   45
 NUMBER OF ELECTRONS                          =    4
 CHARGE OF MOLECULE                           =    0
 SPIN MULTIPLICITY                            =    1
 NUMBER OF OCCUPIED ORBITALS (ALPHA)          =    2
 NUMBER OF OCCUPIED ORBITALS (BETA )          =    2
 TOTAL NUMBER OF ATOMS                        =    1
 THE NUCLEAR REPULSION ENERGY IS        0.0000000000

 THIS MOLECULE IS RECOGNIZED AS BEING LINEAR,
 ORBITAL LZ DEGENERACY TOLERANCE ETOLLZ= 1.00E-06

     $CONTRL OPTIONS
     ---------------
 SCFTYP=RHF          RUNTYP=ENERGY       EXETYP=RUN     
 MPLEVL=       0     CITYP =NONE         CCTYP =NONE         VBTYP =NONE    
 DFTTYP=NONE         TDDFT =NONE    
 MULT  =       1     ICHARG=       0     NZVAR =       0     COORD =PRINAXIS
 PP    =NONE         RELWFN=NONE         LOCAL =NONE         NUMGRD=       F
 ISPHER=      -1     NOSYM =       0     MAXIT =      30     UNITS =ANGS    
 PLTORB=       F     MOLPLT=       F     AIMPAC=       F     FRIEND=        
 NPRINT=       7     IREST =       0     GEOM  =INPUT   
 NORMF =       0     NORMP =       0     ITOL  =      20     ICUT  =       9
 INTTYP=BEST         GRDTYP=BEST         QMTTOL= 1.0E-06

     $SYSTEM OPTIONS
     ---------------
  REPLICATED MEMORY=     1000000 WORDS (ON EVERY NODE).
 DISTRIBUTED MEMDDI=           0 MILLION WORDS IN AGGREGATE,
 MEMDDI DISTRIBUTED OVER   1 PROCESSORS IS           0 WORDS/PROCESSOR.
 TOTAL MEMORY REQUESTED ON EACH PROCESSOR=     1000000 WORDS.
 TIMLIM=        2000.00 MINUTES, OR       1.4 DAYS.
 PARALL= F  BALTYP=  DLB     KDIAG=    0  COREFL= F
 MXSEQ2=     300 MXSEQ3=     150  mem10=         0

          ----------------
          PROPERTIES INPUT
          ----------------

     MOMENTS            FIELD           POTENTIAL          DENSITY
 IEMOM =       1   IEFLD =       0   IEPOT =       0   IEDEN =       0
 WHERE =COMASS     WHERE =NUCLEI     WHERE =NUCLEI     WHERE =NUCLEI  
 OUTPUT=BOTH       OUTPUT=BOTH       OUTPUT=BOTH       OUTPUT=BOTH    
 IEMINT=       0   IEFINT=       0                     IEDINT=       0
                                                       MORB  =       0
          EXTRAPOLATION IN EFFECT
          SOSCF IN EFFECT
 ORBITAL PRINTING OPTION: NPREO=     1    45     2     1

     -------------------------------
     INTEGRAL TRANSFORMATION OPTIONS
     -------------------------------
     NWORD  =            0
     CUTOFF = 1.0E-09     MPTRAN =       0
     DIRTRF =       F     AOINTS =DUP     

          ----------------------
          INTEGRAL INPUT OPTIONS
          ----------------------
 NOPK  =       1 NORDER=       0 SCHWRZ=       F

     ------------------------------------------
     THE POINT GROUP IS C1 , NAXIS= 0, ORDER= 1
     ------------------------------------------

     DIMENSIONS OF THE SYMMETRY SUBSPACES ARE
 A   =   45

 ..... DONE SETTING UP THE RUN .....
 STEP CPU TIME =     0.00 TOTAL CPU TIME =          0.0 (      0.0 MIN)
 TOTAL WALL CLOCK TIME=          0.0 SECONDS, CPU UTILIZATION IS     0.00%

          ********************
          1 ELECTRON INTEGRALS
          ********************
 ...... END OF ONE-ELECTRON INTEGRALS ......
 STEP CPU TIME =     0.00 TOTAL CPU TIME =          0.0 (      0.0 MIN)
 TOTAL WALL CLOCK TIME=          0.0 SECONDS, CPU UTILIZATION IS     0.00%

          -------------
          GUESS OPTIONS
          -------------
          GUESS =HUCKEL            NORB  =       0          NORDER=       0
          MIX   =       F          PRTMO =       F          PUNMO =       F
          TOLZ  = 1.0E-08          TOLE  = 1.0E-05
          SYMDEN=       F          PURIFY=       F

 INITIAL GUESS ORBITALS GENERATED BY HUCKEL   ROUTINE.
 HUCKEL GUESS REQUIRES     15564 WORDS.

 SYMMETRIES FOR INITIAL GUESS ORBITALS FOLLOW.   BOTH SET(S).
     2 ORBITALS ARE OCCUPIED (    1 CORE ORBITALS).
     2=A        3=A        4=A        5=A        6=A        7=A        8=A   
     9=A       10=A       11=A       12=A   
 ...... END OF INITIAL ORBITAL SELECTION ......
 STEP CPU TIME =     0.00 TOTAL CPU TIME =          0.0 (      0.0 MIN)
 TOTAL WALL CLOCK TIME=          0.0 SECONDS, CPU UTILIZATION IS     0.00%

                    ----------------------
                    AO INTEGRAL TECHNOLOGY
                    ----------------------
     S,P,L SHELL ROTATED AXIS INTEGRALS, REPROGRAMMED BY
        KAZUYA ISHIMURA (IMS) AND JOSE SIERRA (SYNSTAR).
     S,P,D,L SHELL ROTATED AXIS INTEGRALS PROGRAMMED BY
        KAZUYA ISHIMURA (INSTITUTE FOR MOLECULAR SCIENCE).
     S,P,D,F,G SHELL TO TOTAL QUARTET ANGULAR MOMENTUM SUM 5,
        ERIC PROGRAM BY GRAHAM FLETCHER (ELORET AND NASA ADVANCED
        SUPERCOMPUTING DIVISION, AMES RESEARCH CENTER).
     S,P,D,F,G,L SHELL GENERAL RYS QUADRATURE PROGRAMMED BY
        MICHEL DUPUIS (PACIFIC NORTHWEST NATIONAL LABORATORY).

          --------------------
          2 ELECTRON INTEGRALS
          --------------------

 THE -PK- OPTION IS OFF, THE INTEGRALS ARE NOT IN SUPERMATRIX FORM.
 STORING   15000 INTEGRALS/RECORD ON DISK, USING 12 BYTES/INTEGRAL.
 TWO ELECTRON INTEGRAL EVALUATION REQUIRES   99145 WORDS OF MEMORY.
 II,JST,KST,LST =  1  1  1  1 NREC =         1 INTLOC =    1
 II,JST,KST,LST =  2  1  1  1 NREC =         1 INTLOC =    2
 II,JST,KST,LST =  3  1  1  1 NREC =         1 INTLOC =   34
 II,JST,KST,LST =  4  1  1  1 NREC =         1 INTLOC =  214
 II,JST,KST,LST =  5  1  1  1 NREC =         1 INTLOC =  776
 II,JST,KST,LST =  6  1  1  1 NREC =         1 INTLOC = 2074
 II,JST,KST,LST =  7  1  1  1 NREC =         1 INTLOC = 5929
 II,JST,KST,LST =  8  1  1  1 NREC =         1 INTLOC =14065
 II,JST,KST,LST =  9  1  1  1 NREC =         2 INTLOC =14002
 TOTAL NUMBER OF NONZERO TWO-ELECTRON INTEGRALS =               72961
          5 INTEGRAL RECORDS WERE STORED ON DISK FILE  8.
  ...... END OF TWO-ELECTRON INTEGRALS .....
 STEP CPU TIME =     0.02 TOTAL CPU TIME =          0.0 (      0.0 MIN)
 TOTAL WALL CLOCK TIME=          0.0 SECONDS, CPU UTILIZATION IS    66.67%

          --------------------------
                 RHF SCF CALCULATION
          --------------------------

     NUCLEAR ENERGY =         0.0000000000
     MAXIT =   30     NPUNCH=    2
     EXTRAP=T  DAMP=F  SHIFT=F  RSTRCT=F  DIIS=F  DEM=F  SOSCF=T
     DENSITY MATRIX CONV=  1.00E-05
     SOSCF WILL OPTIMIZE      86 ORBITAL ROTATIONS, SOGTOL=   0.250
     MEMORY REQUIRED FOR RHF ITERS=     45149 WORDS.

 ITER EX DEM     TOTAL ENERGY        E CHANGE  DENSITY CHANGE     ORB. GRAD
   1  0  0      -14.5425453545   -14.5425453545   0.343902457   0.000000000
          ---------------START SECOND ORDER SCF---------------
   2  1  0      -14.5713934756    -0.0288481212   0.091949325   0.016712398
   3  2  0      -14.5720042602    -0.0006107846   0.023221428   0.001565357
   4  3  0      -14.5720362888    -0.0000320286   0.002128604   0.000326787
   5  4  0      -14.5720365331    -0.0000002443   0.000913441   0.000053494
   6  5  0      -14.5720365465    -0.0000000134   0.000059968   0.000005163
   7  6  0      -14.5720365465    -0.0000000001   0.000007216   0.000000956
   8  7  0      -14.5720365465    -0.0000000000   0.000000643   0.000000039

          -----------------
          DENSITY CONVERGED
          -----------------
     TIME TO FORM FOCK OPERATORS=       0.0 SECONDS (       0.0 SEC/ITER)
     TIME TO SOLVE SCF EQUATIONS=       0.0 SECONDS (       0.0 SEC/ITER)

 FINAL RHF ENERGY IS      -14.5720365465 AFTER   8 ITERATIONS

 LZ VALUE ANALYSIS FOR THE MOS
 ----------------------------------------
 MO     1 (    1) HAS LZ(WEIGHT)= 0.00(100.0%) 
 MO     2 (    2) HAS LZ(WEIGHT)= 0.00(100.0%) 
 MO     3 (    3) HAS LZ(WEIGHT)=-1.00( 20.2%) -0.00( 59.6%)  1.00( 20.2%) 
 MO     4 (    3) HAS LZ(WEIGHT)=-1.00( 29.9%) -0.00( 40.3%)  1.00( 29.9%) 
 MO     5 (    3) HAS LZ(WEIGHT)=-1.00( 49.9%)  1.00( 49.9%) 
 MO     6 (    4) HAS LZ(WEIGHT)= 0.00(100.0%) 
 MO     7 (    5) HAS LZ(WEIGHT)=-1.00( 48.9%) -0.00(  2.2%)  1.00( 48.9%) 
 MO     8 (    5) HAS LZ(WEIGHT)=-1.00( 50.0%)  1.00( 50.0%) 
 MO     9 (    5) HAS LZ(WEIGHT)=-1.00(  1.1%) -0.00( 97.8%)  1.00(  1.1%) 
 MO    10 (    6) HAS LZ(WEIGHT)=-2.00(  2.8%) -1.00( 47.0%)  1.00( 47.0%)  2.00(  2.8%) 
 MO    11 (    6) HAS LZ(WEIGHT)=-2.00( 45.9%) -1.00(  2.0%)  0.00(  4.0%)  1.00(  2.0%)  2.00( 45.9%) 
 MO    12 (    6) HAS LZ(WEIGHT)=-2.00(  2.6%)  0.00( 94.8%)  2.00(  2.6%) 
 MO    13 (    6) HAS LZ(WEIGHT)=-2.00( 47.5%) -1.00(  2.3%)  1.00(  2.3%)  2.00( 47.5%) 
 MO    14 (    6) HAS LZ(WEIGHT)=-2.00(  1.3%) -1.00( 48.6%)  1.00( 48.6%)  2.00(  1.3%) 
 MO    15 (    7) HAS LZ(WEIGHT)= 0.00(100.0%) 
 MO    16 (    8) HAS LZ(WEIGHT)=-1.00( 47.7%) -0.00(  4.7%)  1.00( 47.7%) 
 MO    17 (    8) HAS LZ(WEIGHT)=-1.00( 35.7%) -0.00( 28.7%)  1.00( 35.7%) 
 MO    18 (    8) HAS LZ(WEIGHT)=-1.00( 16.7%) -0.00( 66.7%)  1.00( 16.7%) 
 MO    19 (    9) HAS LZ(WEIGHT)= 0.00(100.0%) 
 MO    20 (   10) HAS LZ(WEIGHT)=-2.00( 48.4%)  0.00(  3.3%)  2.00( 48.4%) 
 MO    21 (   10) HAS LZ(WEIGHT)=-2.00(  3.6%) -1.00( 40.8%)  0.00( 11.0%)  1.00( 40.8%)  2.00(  3.6%) 
 MO    22 (   10) HAS LZ(WEIGHT)=-2.00(  4.4%) -1.00( 21.4%)  0.00( 48.4%)  1.00( 21.4%)  2.00(  4.4%) 
 MO    23 (   10) HAS LZ(WEIGHT)=-1.00( 36.3%)  0.00( 25.6%)  1.00( 36.3%) 
 MO    24 (   10) HAS LZ(WEIGHT)=-2.00( 42.8%) -1.00(  1.4%)  0.00( 11.7%)  1.00(  1.4%)  2.00( 42.8%) 
 MO    25 (   11) HAS LZ(WEIGHT)=-3.00(  8.0%) -2.00( 39.4%) -1.00(  1.2%) -0.00(  2.6%)  1.00(  1.2%)  2.00( 39.4%)  3.00(  8.0%) 
 MO    26 (   11) HAS LZ(WEIGHT)=-3.00( 25.1%) -2.00(  9.4%) -1.00( 14.0%) -0.00(  2.9%)  1.00( 14.0%)  2.00(  9.4%)  3.00( 25.1%) 
 MO    27 (   11) HAS LZ(WEIGHT)=-3.00( 21.7%) -1.00( 17.9%) -0.00( 20.3%)  1.00( 17.9%)  3.00( 21.7%) 
 MO    28 (   11) HAS LZ(WEIGHT)=-3.00(  9.6%) -2.00( 17.4%) -1.00( 16.8%) -0.00( 12.2%)  1.00( 16.8%)  2.00( 17.4%)  3.00(  9.6%) 
 MO    29 (   11) HAS LZ(WEIGHT)=-3.00( 13.8%) -2.00( 12.7%) -1.00( 22.3%) -0.00(  2.4%)  1.00( 22.3%)  2.00( 12.7%)  3.00( 13.8%) 
 MO    30 (   11) HAS LZ(WEIGHT)=-3.00(  7.9%) -2.00(  7.2%) -1.00( 25.4%) -0.00( 19.2%)  1.00( 25.4%)  2.00(  7.2%)  3.00(  7.9%) 
 MO    31 (   11) HAS LZ(WEIGHT)=-3.00( 13.9%) -2.00( 13.5%) -1.00(  2.4%) -0.00( 40.4%)  1.00(  2.4%)  2.00( 13.5%)  3.00( 13.9%) 
 MO    32 (   12) HAS LZ(WEIGHT)=-1.00( 25.8%)  0.00( 48.5%)  1.00( 25.8%) 
 MO    33 (   12) HAS LZ(WEIGHT)=-1.00( 27.3%)  0.00( 45.3%)  1.00( 27.3%) 
 MO    34 (   12) HAS LZ(WEIGHT)=-1.00( 46.9%)  0.00(  6.2%)  1.00( 46.9%) 
 MO    35 (   13) HAS LZ(WEIGHT)= 0.00(100.0%) 
 MO    36 (   14) HAS LZ(WEIGHT)=-2.00( 25.3%)  0.00( 49.3%)  2.00( 25.3%) 
 MO    37 (   14) HAS LZ(WEIGHT)=-2.00( 24.7%)  0.00( 50.7%)  2.00( 24.7%) 
 MO    38 (   14) HAS LZ(WEIGHT)=-2.00( 46.1%) -1.00(  3.9%)  1.00(  3.9%)  2.00( 46.1%) 
 MO    39 (   14) HAS LZ(WEIGHT)=-2.00(  2.4%) -1.00( 47.6%)  1.00( 47.6%)  2.00(  2.4%) 
 MO    40 (   14) HAS LZ(WEIGHT)=-2.00(  1.5%) -1.00( 48.5%)  1.00( 48.5%)  2.00(  1.5%) 
 MO    41 (   15) HAS LZ(WEIGHT)=-1.00( 32.5%)  0.00( 34.9%)  1.00( 32.5%) 
 MO    42 (   15) HAS LZ(WEIGHT)=-1.00( 24.5%)  0.00( 50.9%)  1.00( 24.5%) 
 MO    43 (   15) HAS LZ(WEIGHT)=-1.00( 42.9%)  0.00( 14.2%)  1.00( 42.9%) 
 MO    44 (   16) HAS LZ(WEIGHT)= 0.00(100.0%) 
 MO    45 (   17) HAS LZ(WEIGHT)= 0.00(100.0%) 

          ------------
          EIGENVECTORS
          ------------

                      1          2          3          4          5
                   -4.7324    -0.3092     0.0296     0.0296     0.0296
                     A          A          A          A          A   
    1  BE 1  S    0.596305  -0.108369   0.000000  -0.000000  -0.000000
    2  BE 1  S    0.446427  -0.199399   0.000000  -0.000000  -0.000000
    3  BE 1  X   -0.000000  -0.000000   0.022397  -0.022942   0.074778
    4  BE 1  Y   -0.000000  -0.000000  -0.046607   0.058552   0.031924
    5  BE 1  Z   -0.000000  -0.000000   0.062816   0.051624  -0.002976
    6  BE 1  S   -0.006630   0.638184   0.000000  -0.000000  -0.000000
    7  BE 1  X   -0.000000  -0.000000   0.048547  -0.049729   0.162087
    8  BE 1  Y   -0.000000  -0.000000  -0.101024   0.126916   0.069197
    9  BE 1  Z   -0.000000  -0.000000   0.136158   0.111898  -0.006450
   10  BE 1  S    0.004320   0.549322   0.000000  -0.000000  -0.000000
   11  BE 1  X   -0.000000  -0.000000   0.000656  -0.000672   0.002191
   12  BE 1  Y   -0.000000  -0.000000  -0.001366   0.001716   0.000935
   13  BE 1  Z   -0.000000  -0.000000   0.001841   0.001513  -0.000087
   14  BE 1  S    0.000454   0.038775   0.000000  -0.000000  -0.000000
   15  BE 1  X   -0.000000  -0.000000   0.247349  -0.253371   0.825836
   16  BE 1  Y   -0.000000  -0.000000  -0.514722   0.646643   0.352560
   17  BE 1  Z   -0.000000  -0.000000   0.693732   0.570123  -0.032865
   18  BE 1 XX    0.000095  -0.011693   0.000000  -0.000000  -0.000000
   19  BE 1 YY    0.000095  -0.011693   0.000000  -0.000000  -0.000000
   20  BE 1 ZZ    0.000095  -0.011693   0.000000  -0.000000  -0.000000
   21  BE 1 XY   -0.000000  -0.000000   0.000000  -0.000000  -0.000000
   22  BE 1 XZ   -0.000000  -0.000000   0.000000  -0.000000  -0.000000
   23  BE 1 YZ   -0.000000  -0.000000   0.000000  -0.000000  -0.000000
   24  BE 1 XX    0.000505  -0.031913   0.000000  -0.000000  -0.000000
   25  BE 1 YY    0.000505  -0.031913   0.000000  -0.000000  -0.000000
   26  BE 1 ZZ    0.000505  -0.031913   0.000000  -0.000000  -0.000000
   27  BE 1 XY   -0.000000  -0.000000   0.000000  -0.000000  -0.000000
   28  BE 1 XZ   -0.000000  -0.000000   0.000000  -0.000000  -0.000000
   29  BE 1 YZ   -0.000000  -0.000000   0.000000  -0.000000  -0.000000
   30  BE 1 XX   -0.001086  -0.019390   0.000000  -0.000000  -0.000000
   31  BE 1 YY   -0.001086  -0.019390   0.000000  -0.000000  -0.000000
   32  BE 1 ZZ   -0.001086  -0.019390   0.000000  -0.000000  -0.000000
   33  BE 1 XY   -0.000000  -0.000000   0.000000  -0.000000  -0.000000
   34  BE 1 XZ   -0.000000  -0.000000   0.000000  -0.000000  -0.000000
   35  BE 1 YZ   -0.000000  -0.000000   0.000000  -0.000000  -0.000000
   36  BE 1 XXX  -0.000000  -0.000000   0.003489  -0.003574   0.011649
   37  BE 1 YYY  -0.000000  -0.000000  -0.007261   0.009122   0.004973
   38  BE 1 ZZZ  -0.000000  -0.000000   0.009786   0.008042  -0.000464
   39  BE 1 XXY  -0.000000  -0.000000  -0.003247   0.004079   0.002224
   40  BE 1 XXZ  -0.000000  -0.000000   0.004376   0.003597  -0.000207
   41  BE 1 YYX  -0.000000  -0.000000   0.001560  -0.001598   0.005210
   42  BE 1 YYZ  -0.000000  -0.000000   0.004376   0.003597  -0.000207
   43  BE 1 ZZX  -0.000000  -0.000000   0.001560  -0.001598   0.005210
   44  BE 1 ZZY  -0.000000  -0.000000  -0.003247   0.004079   0.002224
   45  BE 1 XYZ  -0.000000  -0.000000   0.000000  -0.000000  -0.000000

                      6          7          8          9         10
                    0.0419     0.0981     0.0981     0.0981     0.1994
                     A          A          A          A          A   
    1  BE 1  S    0.032016   0.000000  -0.000000   0.000000   0.000000
    2  BE 1  S    0.005010   0.000000  -0.000000   0.000000   0.000000
    3  BE 1  X    0.000000   0.036233   0.164965   0.001730   0.000000
    4  BE 1  Y    0.000000   0.163088  -0.036084   0.025086   0.000000
    5  BE 1  Z    0.000000  -0.024870   0.003711   0.167024   0.000000
    6  BE 1  S   -0.467776   0.000000  -0.000000   0.000000   0.000000
    7  BE 1  X    0.000000   0.023995   0.109248   0.001145   0.000000
    8  BE 1  Y    0.000000   0.108005  -0.023897   0.016613   0.000000
    9  BE 1  Z    0.000000  -0.016470   0.002458   0.110611   0.000000
   10  BE 1  S   -0.099843   0.000000  -0.000000   0.000000   0.000000
   11  BE 1  X    0.000000   0.266787   1.214650   0.012735   0.000000
   12  BE 1  Y    0.000000   1.200834  -0.265689   0.184712   0.000000
   13  BE 1  Z    0.000000  -0.183123   0.027327   1.229810   0.000000
   14  BE 1  S    2.500451   0.000000  -0.000000   0.000000   0.000000
   15  BE 1  X    0.000000  -0.249234  -1.134732  -0.011897   0.000000
   16  BE 1  Y    0.000000  -1.121825   0.248208  -0.172559   0.000000
   17  BE 1  Z    0.000000   0.171074  -0.025529  -1.148894   0.000000
   18  BE 1 XX   -0.028584   0.000000  -0.000000   0.000000   0.002872
   19  BE 1 YY   -0.028584   0.000000  -0.000000   0.000000  -0.001777
   20  BE 1 ZZ   -0.028584   0.000000  -0.000000   0.000000  -0.001095
   21  BE 1 XY    0.000000   0.000000  -0.000000   0.000000  -0.002462
   22  BE 1 XZ    0.000000   0.000000  -0.000000   0.000000   0.011212
   23  BE 1 YZ    0.000000   0.000000  -0.000000   0.000000  -0.009981
   24  BE 1 XX   -0.127399   0.000000  -0.000000   0.000000  -0.010134
   25  BE 1 YY   -0.127399   0.000000  -0.000000   0.000000   0.006271
   26  BE 1 ZZ   -0.127399   0.000000  -0.000000   0.000000   0.003863
   27  BE 1 XY    0.000000   0.000000  -0.000000   0.000000   0.008689
   28  BE 1 XZ    0.000000   0.000000  -0.000000   0.000000  -0.039565
   29  BE 1 YZ    0.000000   0.000000  -0.000000   0.000000   0.035222
   30  BE 1 XX   -0.659887   0.000000  -0.000000   0.000000   0.189709
   31  BE 1 YY   -0.659887   0.000000  -0.000000   0.000000  -0.117401
   32  BE 1 ZZ   -0.659887   0.000000  -0.000000   0.000000  -0.072308
   33  BE 1 XY    0.000000   0.000000  -0.000000   0.000000  -0.162657
   34  BE 1 XZ    0.000000   0.000000  -0.000000   0.000000   0.740665
   35  BE 1 YZ    0.000000   0.000000  -0.000000   0.000000  -0.659374
   36  BE 1 XXX   0.000000  -0.002409  -0.010967  -0.000115   0.000000
   37  BE 1 YYY   0.000000  -0.010842   0.002399  -0.001668   0.000000
   38  BE 1 ZZZ   0.000000   0.001653  -0.000247  -0.011104   0.000000
   39  BE 1 XXY   0.000000  -0.004849   0.001073  -0.000746   0.000000
   40  BE 1 XXZ   0.000000   0.000739  -0.000110  -0.004966   0.000000
   41  BE 1 YYX   0.000000  -0.001077  -0.004905  -0.000051   0.000000
   42  BE 1 YYZ   0.000000   0.000739  -0.000110  -0.004966   0.000000
   43  BE 1 ZZX   0.000000  -0.001077  -0.004905  -0.000051   0.000000
   44  BE 1 ZZY   0.000000  -0.004849   0.001073  -0.000746   0.000000
   45  BE 1 XYZ   0.000000   0.000000  -0.000000   0.000000   0.000000

                     11         12         13         14         15
                    0.1994     0.1994     0.1994     0.1994     0.2016
                     A          A          A          A          A   
    1  BE 1  S    0.000000   0.000000  -0.000000   0.000000  -0.044170
    2  BE 1  S    0.000000   0.000000  -0.000000   0.000000  -0.253310
    3  BE 1  X    0.000000   0.000000  -0.000000   0.000000  -0.000000
    4  BE 1  Y    0.000000   0.000000  -0.000000   0.000000  -0.000000
    5  BE 1  Z    0.000000   0.000000  -0.000000   0.000000  -0.000000
    6  BE 1  S    0.000000   0.000000  -0.000000   0.000000  -0.595606
    7  BE 1  X    0.000000   0.000000  -0.000000   0.000000  -0.000000
    8  BE 1  Y    0.000000   0.000000  -0.000000   0.000000  -0.000000
    9  BE 1  Z    0.000000   0.000000  -0.000000   0.000000  -0.000000
   10  BE 1  S    0.000000   0.000000  -0.000000   0.000000   2.998918
   11  BE 1  X    0.000000   0.000000  -0.000000   0.000000  -0.000000
   12  BE 1  Y    0.000000   0.000000  -0.000000   0.000000  -0.000000
   13  BE 1  Z    0.000000   0.000000  -0.000000   0.000000  -0.000000
   14  BE 1  S    0.000000   0.000000  -0.000000   0.000000   2.456333
   15  BE 1  X    0.000000   0.000000  -0.000000   0.000000  -0.000000
   16  BE 1  Y    0.000000   0.000000  -0.000000   0.000000  -0.000000
   17  BE 1  Z    0.000000   0.000000  -0.000000   0.000000  -0.000000
   18  BE 1 XX    0.014337  -0.004622  -0.001093   0.001851  -0.101004
   19  BE 1 YY   -0.011227  -0.010456   0.000081  -0.001114  -0.101004
   20  BE 1 ZZ   -0.003110   0.015078   0.001012  -0.000737  -0.101004
   21  BE 1 XY    0.001561  -0.000954   0.015076  -0.001754  -0.000000
   22  BE 1 XZ   -0.003104   0.000424   0.003303   0.009662  -0.000000
   23  BE 1 YZ    0.000438  -0.000036  -0.000302   0.011827  -0.000000
   24  BE 1 XX   -0.050595   0.016311   0.003857  -0.006532  -0.428489
   25  BE 1 YY    0.039620   0.036898  -0.000287   0.003931  -0.428489
   26  BE 1 ZZ    0.010975  -0.053209  -0.003570   0.002600  -0.428489
   27  BE 1 XY   -0.005510   0.003367  -0.053204   0.006189  -0.000000
   28  BE 1 XZ    0.010955  -0.001497  -0.011657  -0.034097  -0.000000
   29  BE 1 YZ   -0.001545   0.000127   0.001065  -0.041737  -0.000000
   30  BE 1 XX    0.947149  -0.305349  -0.072204   0.122275  -2.082141
   31  BE 1 YY   -0.741702  -0.690749   0.005365  -0.073595  -2.082141
   32  BE 1 ZZ   -0.205447   0.996097   0.066838  -0.048680  -2.082141
   33  BE 1 XY    0.103144  -0.063027   0.995988  -0.115854  -0.000000
   34  BE 1 XZ   -0.205087   0.028018   0.218219   0.638305  -0.000000
   35  BE 1 YZ    0.028914  -0.002379  -0.019945   0.781326  -0.000000
   36  BE 1 XXX   0.000000   0.000000  -0.000000   0.000000  -0.000000
   37  BE 1 YYY   0.000000   0.000000  -0.000000   0.000000  -0.000000
   38  BE 1 ZZZ   0.000000   0.000000  -0.000000   0.000000  -0.000000
   39  BE 1 XXY   0.000000   0.000000  -0.000000   0.000000  -0.000000
   40  BE 1 XXZ   0.000000   0.000000  -0.000000   0.000000  -0.000000
   41  BE 1 YYX   0.000000   0.000000  -0.000000   0.000000  -0.000000
   42  BE 1 YYZ   0.000000   0.000000  -0.000000   0.000000  -0.000000
   43  BE 1 ZZX   0.000000   0.000000  -0.000000   0.000000  -0.000000
   44  BE 1 ZZY   0.000000   0.000000  -0.000000   0.000000  -0.000000
   45  BE 1 XYZ   0.000000   0.000000  -0.000000   0.000000  -0.000000

                     16         17         18         19         20
                    0.3449     0.3449     0.3449     0.5720     0.7982
                     A          A          A          A          A   
    1  BE 1  S   -0.000000  -0.000000  -0.000000   0.137319  -0.000000
    2  BE 1  S   -0.000000  -0.000000  -0.000000  -0.138727  -0.000000
    3  BE 1  X   -0.038826  -0.213303   0.129695   0.000000  -0.000000
    4  BE 1  Y   -0.243614   0.003717  -0.066817   0.000000  -0.000000
    5  BE 1  Z    0.054505  -0.135331  -0.206255   0.000000  -0.000000
    6  BE 1  S   -0.000000  -0.000000  -0.000000  -3.835173  -0.000000
    7  BE 1  X   -0.162896  -0.894914   0.544136   0.000000  -0.000000
    8  BE 1  Y   -1.022087   0.015595  -0.280330   0.000000  -0.000000
    9  BE 1  Z    0.228677  -0.567781  -0.865345   0.000000  -0.000000
   10  BE 1  S   -0.000000  -0.000000  -0.000000   9.671034  -0.000000
   11  BE 1  X    0.274646   1.508847  -0.917426   0.000000  -0.000000
   12  BE 1  Y    1.723263  -0.026294   0.472643   0.000000  -0.000000
   13  BE 1  Z   -0.385554   0.957293   1.458992   0.000000  -0.000000
   14  BE 1  S   -0.000000  -0.000000  -0.000000   1.671814  -0.000000
   15  BE 1  X   -0.114794  -0.630650   0.383455   0.000000  -0.000000
   16  BE 1  Y   -0.720269   0.010990  -0.197550   0.000000  -0.000000
   17  BE 1  Z    0.161149  -0.400118  -0.609812   0.000000  -0.000000
   18  BE 1 XX   -0.000000  -0.000000  -0.000000  -0.222361  -0.028826
   19  BE 1 YY   -0.000000  -0.000000  -0.000000  -0.222361   0.023285
   20  BE 1 ZZ   -0.000000  -0.000000  -0.000000  -0.222361   0.005541
   21  BE 1 XY   -0.000000  -0.000000  -0.000000   0.000000  -0.000548
   22  BE 1 XZ   -0.000000  -0.000000  -0.000000   0.000000   0.000114
   23  BE 1 YZ   -0.000000  -0.000000  -0.000000   0.000000   0.000291
   24  BE 1 XX   -0.000000  -0.000000  -0.000000  -1.048716   1.073922
   25  BE 1 YY   -0.000000  -0.000000  -0.000000  -1.048716  -0.867508
   26  BE 1 ZZ   -0.000000  -0.000000  -0.000000  -1.048716  -0.206415
   27  BE 1 XY   -0.000000  -0.000000  -0.000000   0.000000   0.020410
   28  BE 1 XZ   -0.000000  -0.000000  -0.000000   0.000000  -0.004257
   29  BE 1 YZ   -0.000000  -0.000000  -0.000000   0.000000  -0.010823
   30  BE 1 XX   -0.000000  -0.000000  -0.000000  -3.036461  -0.450621
   31  BE 1 YY   -0.000000  -0.000000  -0.000000  -3.036461   0.364008
   32  BE 1 ZZ   -0.000000  -0.000000  -0.000000  -3.036461   0.086612
   33  BE 1 XY   -0.000000  -0.000000  -0.000000   0.000000  -0.008564
   34  BE 1 XZ   -0.000000  -0.000000  -0.000000   0.000000   0.001786
   35  BE 1 YZ   -0.000000  -0.000000  -0.000000   0.000000   0.004541
   36  BE 1 XXX  -0.022723  -0.124838   0.075905   0.000000  -0.000000
   37  BE 1 YYY  -0.142578   0.002175  -0.039105   0.000000  -0.000000
   38  BE 1 ZZZ   0.031900  -0.079204  -0.120713   0.000000  -0.000000
   39  BE 1 XXY  -0.063763   0.000973  -0.017488   0.000000  -0.000000
   40  BE 1 XXZ   0.014266  -0.035421  -0.053984   0.000000  -0.000000
   41  BE 1 YYX  -0.010162  -0.055829   0.033946   0.000000  -0.000000
   42  BE 1 YYZ   0.014266  -0.035421  -0.053984   0.000000  -0.000000
   43  BE 1 ZZX  -0.010162  -0.055829   0.033946   0.000000  -0.000000
   44  BE 1 ZZY  -0.063763   0.000973  -0.017488   0.000000  -0.000000
   45  BE 1 XYZ  -0.000000  -0.000000  -0.000000   0.000000  -0.000000

                     21         22         23         24         25
                    0.7982     0.7982     0.7982     0.7982     1.0547
                     A          A          A          A          A   
    1  BE 1  S    0.000000  -0.000000  -0.000000  -0.000000   0.000000
    2  BE 1  S    0.000000  -0.000000  -0.000000  -0.000000   0.000000
    3  BE 1  X    0.000000  -0.000000  -0.000000  -0.000000   0.000000
    4  BE 1  Y    0.000000  -0.000000  -0.000000  -0.000000   0.000000
    5  BE 1  Z    0.000000  -0.000000  -0.000000  -0.000000   0.000000
    6  BE 1  S    0.000000  -0.000000  -0.000000  -0.000000   0.000000
    7  BE 1  X    0.000000  -0.000000  -0.000000  -0.000000   0.000000
    8  BE 1  Y    0.000000  -0.000000  -0.000000  -0.000000   0.000000
    9  BE 1  Z    0.000000  -0.000000  -0.000000  -0.000000   0.000000
   10  BE 1  S    0.000000  -0.000000  -0.000000  -0.000000   0.000000
   11  BE 1  X    0.000000  -0.000000  -0.000000  -0.000000   0.000000
   12  BE 1  Y    0.000000  -0.000000  -0.000000  -0.000000   0.000000
   13  BE 1  Z    0.000000  -0.000000  -0.000000  -0.000000   0.000000
   14  BE 1  S    0.000000  -0.000000  -0.000000  -0.000000   0.000000
   15  BE 1  X    0.000000  -0.000000  -0.000000  -0.000000   0.000000
   16  BE 1  Y    0.000000  -0.000000  -0.000000  -0.000000   0.000000
   17  BE 1  Z    0.000000  -0.000000  -0.000000  -0.000000   0.000000
   18  BE 1 XX   -0.003706   0.007468   0.005086  -0.003160   0.000000
   19  BE 1 YY   -0.006449   0.013818   0.010398  -0.007309   0.000000
   20  BE 1 ZZ    0.010155  -0.021286  -0.015484   0.010469   0.000000
   21  BE 1 XY    0.008114  -0.008270  -0.002572  -0.028198   0.000000
   22  BE 1 XZ   -0.027421  -0.012583  -0.003284  -0.003903   0.000000
   23  BE 1 YZ   -0.003590   0.015590  -0.025879  -0.003250   0.000000
   24  BE 1 XX    0.138074  -0.278213  -0.189482   0.117742   0.000000
   25  BE 1 YY    0.240256  -0.514811  -0.387389   0.272303   0.000000
   26  BE 1 ZZ   -0.378330   0.793024   0.576871  -0.390045   0.000000
   27  BE 1 XY   -0.302281   0.308101   0.095825   1.050544   0.000000
   28  BE 1 XZ    1.021600   0.468770   0.122363   0.145395   0.000000
   29  BE 1 YZ    0.133746  -0.580796   0.964132   0.121086   0.000000
   30  BE 1 XX   -0.057936   0.116739   0.079507  -0.049405   0.000000
   31  BE 1 YY   -0.100812   0.216016   0.162550  -0.114259   0.000000
   32  BE 1 ZZ    0.158748  -0.332755  -0.242057   0.163664   0.000000
   33  BE 1 XY    0.126838  -0.129280  -0.040208  -0.440811   0.000000
   34  BE 1 XZ   -0.428666  -0.196697  -0.051344  -0.061008   0.000000
   35  BE 1 YZ   -0.056120   0.243704  -0.404552  -0.050808   0.000000
   36  BE 1 XXX   0.000000  -0.000000  -0.000000  -0.000000   0.362095
   37  BE 1 YYY   0.000000  -0.000000  -0.000000  -0.000000  -0.175752
   38  BE 1 ZZZ   0.000000  -0.000000  -0.000000  -0.000000  -0.162051
   39  BE 1 XXY   0.000000  -0.000000  -0.000000  -0.000000   0.103543
   40  BE 1 XXZ   0.000000  -0.000000  -0.000000  -0.000000  -0.061710
   41  BE 1 YYX   0.000000  -0.000000  -0.000000  -0.000000  -0.375191
   42  BE 1 YYZ   0.000000  -0.000000  -0.000000  -0.000000   0.279124
   43  BE 1 ZZX   0.000000  -0.000000  -0.000000  -0.000000  -0.110610
   44  BE 1 ZZY   0.000000  -0.000000  -0.000000  -0.000000   0.132254
   45  BE 1 XYZ   0.000000  -0.000000  -0.000000  -0.000000   0.865683

                     26         27         28         29         30
                    1.0547     1.0547     1.0547     1.0547     1.0547
                     A          A          A          A          A   
    1  BE 1  S    0.000000   0.000000  -0.000000   0.000000   0.000000
    2  BE 1  S    0.000000   0.000000  -0.000000   0.000000   0.000000
    3  BE 1  X    0.000000   0.000000  -0.000000   0.000000   0.000000
    4  BE 1  Y    0.000000   0.000000  -0.000000   0.000000   0.000000
    5  BE 1  Z    0.000000   0.000000  -0.000000   0.000000   0.000000
    6  BE 1  S    0.000000   0.000000  -0.000000   0.000000   0.000000
    7  BE 1  X    0.000000   0.000000  -0.000000   0.000000   0.000000
    8  BE 1  Y    0.000000   0.000000  -0.000000   0.000000   0.000000
    9  BE 1  Z    0.000000   0.000000  -0.000000   0.000000   0.000000
   10  BE 1  S    0.000000   0.000000  -0.000000   0.000000   0.000000
   11  BE 1  X    0.000000   0.000000  -0.000000   0.000000   0.000000
   12  BE 1  Y    0.000000   0.000000  -0.000000   0.000000   0.000000
   13  BE 1  Z    0.000000   0.000000  -0.000000   0.000000   0.000000
   14  BE 1  S    0.000000   0.000000  -0.000000   0.000000   0.000000
   15  BE 1  X    0.000000   0.000000  -0.000000   0.000000   0.000000
   16  BE 1  Y    0.000000   0.000000  -0.000000   0.000000   0.000000
   17  BE 1  Z    0.000000   0.000000  -0.000000   0.000000   0.000000
   18  BE 1 XX    0.000000   0.000000  -0.000000   0.000000   0.000000
   19  BE 1 YY    0.000000   0.000000  -0.000000   0.000000   0.000000
   20  BE 1 ZZ    0.000000   0.000000  -0.000000   0.000000   0.000000
   21  BE 1 XY    0.000000   0.000000  -0.000000   0.000000   0.000000
   22  BE 1 XZ    0.000000   0.000000  -0.000000   0.000000   0.000000
   23  BE 1 YZ    0.000000   0.000000  -0.000000   0.000000   0.000000
   24  BE 1 XX    0.000000   0.000000  -0.000000   0.000000   0.000000
   25  BE 1 YY    0.000000   0.000000  -0.000000   0.000000   0.000000
   26  BE 1 ZZ    0.000000   0.000000  -0.000000   0.000000   0.000000
   27  BE 1 XY    0.000000   0.000000  -0.000000   0.000000   0.000000
   28  BE 1 XZ    0.000000   0.000000  -0.000000   0.000000   0.000000
   29  BE 1 YZ    0.000000   0.000000  -0.000000   0.000000   0.000000
   30  BE 1 XX    0.000000   0.000000  -0.000000   0.000000   0.000000
   31  BE 1 YY    0.000000   0.000000  -0.000000   0.000000   0.000000
   32  BE 1 ZZ    0.000000   0.000000  -0.000000   0.000000   0.000000
   33  BE 1 XY    0.000000   0.000000  -0.000000   0.000000   0.000000
   34  BE 1 XZ    0.000000   0.000000  -0.000000   0.000000   0.000000
   35  BE 1 YZ    0.000000   0.000000  -0.000000   0.000000   0.000000
   36  BE 1 XXX   0.853275   0.146501  -0.127163   0.004796  -0.275299
   37  BE 1 YYY  -0.229668   0.873266  -0.133273  -0.009330  -0.259603
   38  BE 1 ZZZ  -0.171403  -0.450016  -0.349550   0.155701  -0.437969
   39  BE 1 XXY   0.182306  -0.518359  -0.379600   0.663834   0.365044
   40  BE 1 XXZ   0.123047   0.239870  -0.269318  -0.541294   0.019832
   41  BE 1 YYX  -0.579196  -0.138522   0.474181   0.326100  -0.410828
   42  BE 1 YYZ   0.106914   0.363890   0.738289   0.332399   0.567765
   43  BE 1 ZZX  -0.565593  -0.058031  -0.303574  -0.332534   0.780181
   44  BE 1 ZZY   0.125826  -0.653250   0.558404  -0.651316  -0.016750
   45  BE 1 XYZ  -0.434262   0.008788  -0.102673  -0.007778  -0.208566

                     31         32         33         34         35
                    1.0547     1.1367     1.1367     1.1367     1.5024
                     A          A          A          A          A   
    1  BE 1  S    0.000000  -0.000000  -0.000000   0.000000  -0.045483
    2  BE 1  S    0.000000  -0.000000  -0.000000   0.000000  -1.670545
    3  BE 1  X    0.000000   0.154765   0.112981  -0.737935  -0.000000
    4  BE 1  Y    0.000000   0.524983  -0.552273   0.025548  -0.000000
    5  BE 1  Z    0.000000  -0.530760  -0.513318  -0.189906  -0.000000
    6  BE 1  S    0.000000  -0.000000  -0.000000   0.000000   5.697302
    7  BE 1  X    0.000000   0.161580   0.117955  -0.770426  -0.000000
    8  BE 1  Y    0.000000   0.548097  -0.576589   0.026673  -0.000000
    9  BE 1  Z    0.000000  -0.554129  -0.535919  -0.198268  -0.000000
   10  BE 1  S    0.000000  -0.000000  -0.000000   0.000000   6.627621
   11  BE 1  X    0.000000   0.162922   0.118935  -0.776825  -0.000000
   12  BE 1  Y    0.000000   0.552650  -0.581378   0.026895  -0.000000
   13  BE 1  Z    0.000000  -0.558731  -0.540370  -0.199914  -0.000000
   14  BE 1  S    0.000000  -0.000000  -0.000000   0.000000   0.906151
   15  BE 1  X    0.000000  -0.061852  -0.045153   0.294915  -0.000000
   16  BE 1  Y    0.000000  -0.209809   0.220716  -0.010210  -0.000000
   17  BE 1  Z    0.000000   0.212118   0.205147   0.075896  -0.000000
   18  BE 1 XX    0.000000  -0.000000  -0.000000   0.000000  -0.829230
   19  BE 1 YY    0.000000  -0.000000  -0.000000   0.000000  -0.829230
   20  BE 1 ZZ    0.000000  -0.000000  -0.000000   0.000000  -0.829230
   21  BE 1 XY    0.000000  -0.000000  -0.000000   0.000000  -0.000000
   22  BE 1 XZ    0.000000  -0.000000  -0.000000   0.000000  -0.000000
   23  BE 1 YZ    0.000000  -0.000000  -0.000000   0.000000  -0.000000
   24  BE 1 XX    0.000000  -0.000000  -0.000000   0.000000  -3.864437
   25  BE 1 YY    0.000000  -0.000000  -0.000000   0.000000  -3.864437
   26  BE 1 ZZ    0.000000  -0.000000  -0.000000   0.000000  -3.864437
   27  BE 1 XY    0.000000  -0.000000  -0.000000   0.000000  -0.000000
   28  BE 1 XZ    0.000000  -0.000000  -0.000000   0.000000  -0.000000
   29  BE 1 YZ    0.000000  -0.000000  -0.000000   0.000000  -0.000000
   30  BE 1 XX    0.000000  -0.000000  -0.000000   0.000000  -1.905612
   31  BE 1 YY    0.000000  -0.000000  -0.000000   0.000000  -1.905612
   32  BE 1 ZZ    0.000000  -0.000000  -0.000000   0.000000  -1.905612
   33  BE 1 XY    0.000000  -0.000000  -0.000000   0.000000  -0.000000
   34  BE 1 XZ    0.000000  -0.000000  -0.000000   0.000000  -0.000000
   35  BE 1 YZ    0.000000  -0.000000  -0.000000   0.000000  -0.000000
   36  BE 1 XXX  -0.165419  -0.264177  -0.192853   1.259619  -0.000000
   37  BE 1 YYY  -0.261778  -0.896120   0.942703  -0.043609  -0.000000
   38  BE 1 ZZZ  -0.635296   0.905981   0.876208   0.324160  -0.000000
   39  BE 1 XXY   0.411483  -0.400757   0.421589  -0.019503  -0.000000
   40  BE 1 XXZ   0.870396   0.405167   0.391852   0.144969  -0.000000
   41  BE 1 YYX   0.452335  -0.118144  -0.086246   0.563319  -0.000000
   42  BE 1 YYZ  -0.018057   0.405167   0.391852   0.144969  -0.000000
   43  BE 1 ZZX  -0.230402  -0.118144  -0.086246   0.563319  -0.000000
   44  BE 1 ZZY  -0.060270  -0.400757   0.421589  -0.019503  -0.000000
   45  BE 1 XYZ   0.088491  -0.000000  -0.000000   0.000000  -0.000000

                     36         37         38         39         40
                    3.1862     3.1862     3.1862     3.1862     3.1862
                     A          A          A          A          A   
    1  BE 1  S   -0.000000   0.000000   0.000000   0.000000  -0.000000
    2  BE 1  S   -0.000000   0.000000   0.000000   0.000000  -0.000000
    3  BE 1  X   -0.000000   0.000000   0.000000   0.000000  -0.000000
    4  BE 1  Y   -0.000000   0.000000   0.000000   0.000000  -0.000000
    5  BE 1  Z   -0.000000   0.000000   0.000000   0.000000  -0.000000
    6  BE 1  S   -0.000000   0.000000   0.000000   0.000000  -0.000000
    7  BE 1  X   -0.000000   0.000000   0.000000   0.000000  -0.000000
    8  BE 1  Y   -0.000000   0.000000   0.000000   0.000000  -0.000000
    9  BE 1  Z   -0.000000   0.000000   0.000000   0.000000  -0.000000
   10  BE 1  S   -0.000000   0.000000   0.000000   0.000000  -0.000000
   11  BE 1  X   -0.000000   0.000000   0.000000   0.000000  -0.000000
   12  BE 1  Y   -0.000000   0.000000   0.000000   0.000000  -0.000000
   13  BE 1  Z   -0.000000   0.000000   0.000000   0.000000  -0.000000
   14  BE 1  S   -0.000000   0.000000   0.000000   0.000000  -0.000000
   15  BE 1  X   -0.000000   0.000000   0.000000   0.000000  -0.000000
   16  BE 1  Y   -0.000000   0.000000   0.000000   0.000000  -0.000000
   17  BE 1  Z   -0.000000   0.000000   0.000000   0.000000  -0.000000
   18  BE 1 XX    1.105003  -0.288092   0.004201   0.005459  -0.006777
   19  BE 1 YY   -0.303010   1.101033   0.002191  -0.004655   0.002788
   20  BE 1 ZZ   -0.801993  -0.812940  -0.006392  -0.000804   0.003988
   21  BE 1 XY   -0.004981  -0.002988   1.096407   0.251306   0.197042
   22  BE 1 XZ    0.001538   0.003226  -0.319011   0.893482   0.635634
   23  BE 1 YZ    0.008288  -0.002854  -0.014258  -0.665299   0.928019
   24  BE 1 XX   -0.564804   0.147254  -0.002147  -0.002790   0.003464
   25  BE 1 YY    0.154878  -0.562774  -0.001120   0.002380  -0.001425
   26  BE 1 ZZ    0.409925   0.415521   0.003267   0.000411  -0.002039
   27  BE 1 XY    0.002546   0.001527  -0.560410  -0.128451  -0.100714
   28  BE 1 XZ   -0.000786  -0.001649   0.163057  -0.456688  -0.324894
   29  BE 1 YZ   -0.004236   0.001459   0.007288   0.340056  -0.474341
   30  BE 1 XX    0.167622  -0.043702   0.000637   0.000828  -0.001028
   31  BE 1 YY   -0.045965   0.167020   0.000332  -0.000706   0.000423
   32  BE 1 ZZ   -0.121657  -0.123318  -0.000970  -0.000122   0.000605
   33  BE 1 XY   -0.000756  -0.000453   0.166318   0.038121   0.029890
   34  BE 1 XZ    0.000233   0.000489  -0.048392   0.135536   0.096422
   35  BE 1 YZ    0.001257  -0.000433  -0.002163  -0.100922   0.140775
   36  BE 1 XXX  -0.000000   0.000000   0.000000   0.000000  -0.000000
   37  BE 1 YYY  -0.000000   0.000000   0.000000   0.000000  -0.000000
   38  BE 1 ZZZ  -0.000000   0.000000   0.000000   0.000000  -0.000000
   39  BE 1 XXY  -0.000000   0.000000   0.000000   0.000000  -0.000000
   40  BE 1 XXZ  -0.000000   0.000000   0.000000   0.000000  -0.000000
   41  BE 1 YYX  -0.000000   0.000000   0.000000   0.000000  -0.000000
   42  BE 1 YYZ  -0.000000   0.000000   0.000000   0.000000  -0.000000
   43  BE 1 ZZX  -0.000000   0.000000   0.000000   0.000000  -0.000000
   44  BE 1 ZZY  -0.000000   0.000000   0.000000   0.000000  -0.000000
   45  BE 1 XYZ  -0.000000   0.000000   0.000000   0.000000  -0.000000

                     41         42         43         44         45
                    3.5384     3.5384     3.5384     3.8425    11.9812
                     A          A          A          A          A   
    1  BE 1  S   -0.000000  -0.000000  -0.000000   0.697318  -1.829386
    2  BE 1  S   -0.000000  -0.000000  -0.000000  -3.599656   1.006191
    3  BE 1  X    2.406877  -0.235487  -3.329317   0.000000  -0.000000
    4  BE 1  Y    2.286632  -2.873702   1.856345   0.000000  -0.000000
    5  BE 1  Z   -2.431280  -2.935855  -1.549998   0.000000  -0.000000
    6  BE 1  S   -0.000000  -0.000000  -0.000000  18.561231   8.133198
    7  BE 1  X   -9.087430   0.889107  12.570206   0.000000  -0.000000
    8  BE 1  Y   -8.633432  10.849979  -7.008835   0.000000  -0.000000
    9  BE 1  Z    9.179566  11.084647   5.852190   0.000000  -0.000000
   10  BE 1  S   -0.000000  -0.000000  -0.000000   1.725844  -0.518633
   11  BE 1  X    0.925518  -0.090552  -1.280225   0.000000  -0.000000
   12  BE 1  Y    0.879280  -1.105027   0.713822   0.000000  -0.000000
   13  BE 1  Z   -0.934902  -1.128927  -0.596022   0.000000  -0.000000
   14  BE 1  S   -0.000000  -0.000000  -0.000000   0.475758   0.047961
   15  BE 1  X   -0.220782   0.021601   0.305398   0.000000  -0.000000
   16  BE 1  Y   -0.209752   0.263604  -0.170282   0.000000  -0.000000
   17  BE 1  Z    0.223021   0.269305   0.142181   0.000000  -0.000000
   18  BE 1 XX   -0.000000  -0.000000  -0.000000  -3.115859  -1.647905
   19  BE 1 YY   -0.000000  -0.000000  -0.000000  -3.115859  -1.647905
   20  BE 1 ZZ   -0.000000  -0.000000  -0.000000  -3.115859  -1.647905
   21  BE 1 XY   -0.000000  -0.000000  -0.000000   0.000000  -0.000000
   22  BE 1 XZ   -0.000000  -0.000000  -0.000000   0.000000  -0.000000
   23  BE 1 YZ   -0.000000  -0.000000  -0.000000   0.000000  -0.000000
   24  BE 1 XX   -0.000000  -0.000000  -0.000000  -6.409053  -2.369552
   25  BE 1 YY   -0.000000  -0.000000  -0.000000  -6.409053  -2.369552
   26  BE 1 ZZ   -0.000000  -0.000000  -0.000000  -6.409053  -2.369552
   27  BE 1 XY   -0.000000  -0.000000  -0.000000   0.000000  -0.000000
   28  BE 1 XZ   -0.000000  -0.000000  -0.000000   0.000000  -0.000000
   29  BE 1 YZ   -0.000000  -0.000000  -0.000000   0.000000  -0.000000
   30  BE 1 XX   -0.000000  -0.000000  -0.000000  -0.726808   0.030732
   31  BE 1 YY   -0.000000  -0.000000  -0.000000  -0.726808   0.030732
   32  BE 1 ZZ   -0.000000  -0.000000  -0.000000  -0.726808   0.030732
   33  BE 1 XY   -0.000000  -0.000000  -0.000000   0.000000  -0.000000
   34  BE 1 XZ   -0.000000  -0.000000  -0.000000   0.000000  -0.000000
   35  BE 1 YZ   -0.000000  -0.000000  -0.000000   0.000000  -0.000000
   36  BE 1 XXX   4.670716  -0.456979  -6.460777   0.000000  -0.000000
   37  BE 1 YYY   4.437372  -5.576623   3.602369   0.000000  -0.000000
   38  BE 1 ZZZ  -4.718072  -5.697236  -3.007882   0.000000  -0.000000
   39  BE 1 XXY   1.984453  -2.493942   1.611028   0.000000  -0.000000
   40  BE 1 XXZ  -2.109986  -2.547882  -1.345166   0.000000  -0.000000
   41  BE 1 YYX   2.088808  -0.204367  -2.889347   0.000000  -0.000000
   42  BE 1 YYZ  -2.109986  -2.547882  -1.345166   0.000000  -0.000000
   43  BE 1 ZZX   2.088808  -0.204367  -2.889347   0.000000  -0.000000
   44  BE 1 ZZY   1.984453  -2.493942   1.611028   0.000000  -0.000000
   45  BE 1 XYZ  -0.000000  -0.000000  -0.000000   0.000000  -0.000000
 ...... END OF RHF CALCULATION ......
 STEP CPU TIME =     0.00 TOTAL CPU TIME =          0.0 (      0.0 MIN)
 TOTAL WALL CLOCK TIME=          0.0 SECONDS, CPU UTILIZATION IS    50.00%

     ----------------------------------------------------------------
     PROPERTY VALUES FOR THE RHF   SELF-CONSISTENT FIELD WAVEFUNCTION
     ----------------------------------------------------------------

          -----------------
          ENERGY COMPONENTS
          -----------------

         WAVEFUNCTION NORMALIZATION =       1.0000000000

                ONE ELECTRON ENERGY =     -19.0607729945
                TWO ELECTRON ENERGY =       4.4887364480
           NUCLEAR REPULSION ENERGY =       0.0000000000
                                      ------------------
                       TOTAL ENERGY =     -14.5720365465

 ELECTRON-ELECTRON POTENTIAL ENERGY =       4.4887364480
  NUCLEUS-ELECTRON POTENTIAL ENERGY =     -33.6309737686
   NUCLEUS-NUCLEUS POTENTIAL ENERGY =       0.0000000000
                                      ------------------
             TOTAL POTENTIAL ENERGY =     -29.1422373206
               TOTAL KINETIC ENERGY =      14.5702007741
                 VIRIAL RATIO (V/T) =       2.0001259950

          ---------------------------------------
          MULLIKEN AND LOWDIN POPULATION ANALYSES
          ---------------------------------------

     ATOMIC MULLIKEN POPULATION IN EACH MOLECULAR ORBITAL

                      1          2

                  2.000000   2.000000

    1             2.000000   2.000000

               ----- POPULATIONS IN EACH AO -----
                             MULLIKEN      LOWDIN
              1  BE 1  S      1.16632     1.09165
              2  BE 1  S      0.82203     0.84548
              3  BE 1  X      0.00000     0.00000
              4  BE 1  Y      0.00000     0.00000
              5  BE 1  Z      0.00000     0.00000
              6  BE 1  S      1.13979     0.40603
              7  BE 1  X      0.00000     0.00000
              8  BE 1  Y      0.00000     0.00000
              9  BE 1  Z      0.00000     0.00000
             10  BE 1  S      1.03552     0.40625
             11  BE 1  X      0.00000     0.00000
             12  BE 1  Y      0.00000     0.00000
             13  BE 1  Z      0.00000     0.00000
             14  BE 1  S      0.05473     0.12477
             15  BE 1  X      0.00000     0.00000
             16  BE 1  Y      0.00000     0.00000
             17  BE 1  Z      0.00000     0.00000
             18  BE 1 XX     -0.00948     0.07616
             19  BE 1 YY     -0.00948     0.07616
             20  BE 1 ZZ     -0.00948     0.07616
             21  BE 1 XY      0.00000     0.00000
             22  BE 1 XZ      0.00000     0.00000
             23  BE 1 YZ      0.00000     0.00000
             24  BE 1 XX     -0.04480     0.23148
             25  BE 1 YY     -0.04480     0.23148
             26  BE 1 ZZ     -0.04480     0.23148
             27  BE 1 XY      0.00000     0.00000
             28  BE 1 XZ      0.00000     0.00000
             29  BE 1 YZ      0.00000     0.00000
             30  BE 1 XX     -0.01852     0.06763
             31  BE 1 YY     -0.01852     0.06763
             32  BE 1 ZZ     -0.01852     0.06763
             33  BE 1 XY      0.00000     0.00000
             34  BE 1 XZ      0.00000     0.00000
             35  BE 1 YZ      0.00000     0.00000
             36  BE 1 XXX     0.00000     0.00000
             37  BE 1 YYY     0.00000     0.00000
             38  BE 1 ZZZ     0.00000     0.00000
             39  BE 1 XXY     0.00000     0.00000
             40  BE 1 XXZ     0.00000     0.00000
             41  BE 1 YYX     0.00000     0.00000
             42  BE 1 YYZ     0.00000     0.00000
             43  BE 1 ZZX     0.00000     0.00000
             44  BE 1 ZZY     0.00000     0.00000
             45  BE 1 XYZ     0.00000     0.00000

          ----- MULLIKEN ATOMIC OVERLAP POPULATIONS -----
          (OFF-DIAGONAL ELEMENTS NEED TO BE MULTIPLIED BY 2)

             1

    1    4.0000000

          TOTAL MULLIKEN AND LOWDIN ATOMIC POPULATIONS
       ATOM         MULL.POP.    CHARGE          LOW.POP.     CHARGE
    1 BE            4.000000   -0.000000         4.000000   -0.000000

          -------------------------------
          BOND ORDER AND VALENCE ANALYSIS     BOND ORDER THRESHOLD=0.050
          -------------------------------

                   BOND                       BOND                       BOND
  ATOM PAIR DIST  ORDER      ATOM PAIR DIST  ORDER      ATOM PAIR DIST  ORDER

                       TOTAL       BONDED        FREE
      ATOM            VALENCE     VALENCE     VALENCE
    1 BE               -0.000       0.000      -0.000

          ---------------------
          ELECTROSTATIC MOMENTS
          ---------------------

 POINT   1           X           Y           Z (BOHR)    CHARGE
                 0.000000    0.000000    0.000000        0.00 (A.U.)
         DX          DY          DZ         /D/  (DEBYE)
     0.000000    0.000000    0.000000    0.000000
 ...... END OF PROPERTY EVALUATION ......
 STEP CPU TIME =     0.00 TOTAL CPU TIME =          0.0 (      0.0 MIN)
 TOTAL WALL CLOCK TIME=          0.0 SECONDS, CPU UTILIZATION IS    50.00%
               580000  WORDS OF DYNAMIC MEMORY USED
 EXECUTION OF GAMESS TERMINATED NORMALLY Wed Jun 12 15:41:31 2019
 DDI: 263640 bytes (0.3 MB / 0 MWords) used by master data server.

 ----------------------------------------
 CPU timing information for all processes
 ========================================
 0: 0.28 + 0.08 = 0.36
 ----------------------------------------
 ddikick.x: exited gracefully.
----- accounting info -----
Files used on the master node amlan-PT-3420 were:
-rw-rw-r-- 1 akroy akroy   34313 Jun 12 15:41 /tmp/bebe_atom_6_311g3df3pd_all.dat
-rw-rw-r-- 1 akroy akroy     244 Jun 12 15:41 /tmp/bebe_atom_6_311g3df3pd_all.F05
-rw-rw-r-- 1 akroy akroy  900080 Jun 12 15:41 /tmp/bebe_atom_6_311g3df3pd_all.F08
-rw-rw-r-- 1 akroy akroy 1537840 Jun 12 15:41 /tmp/bebe_atom_6_311g3df3pd_all.F10
Wed Jun 12 15:41:34 IST 2019
0.0u 0.0s 0:03.15 1.2% 0+0k 0+16io 0pf+0w
