----- GAMESS execution script 'rungms' -----
This job is running on host amlan-PT-3420
under operating system Linux at Fri Dec 13 14:27:52 IST 2019
Available scratch disk space (Kbyte units) at beginning of the job is
Filesystem      1K-blocks     Used  Available Use% Mounted on
/dev/sda3      1916812448 68409476 1751011460   4% /
GAMESS temporary binary files will be written to /tmp
GAMESS supplementary output files will be written to /tmp
Copying input file n2_b3lyp.inp to your run's scratch directory...

 Distributed Data Interface kickoff program.
 Initiating 1 compute processes on 1 nodes to run the following command:
 /home/akroy/gamess/gamess.01.x n2_b3lyp 

          ******************************************************
          *         GAMESS VERSION = 30 SEP 2018 (R3)         *
          *             FROM IOWA STATE UNIVERSITY             *
          * M.W.SCHMIDT, K.K.BALDRIDGE, J.A.BOATZ, S.T.ELBERT, *
          *   M.S.GORDON, J.H.JENSEN, S.KOSEKI, N.MATSUNAGA,   *
          *          K.A.NGUYEN, S.J.SU, T.L.WINDUS,           *
          *       TOGETHER WITH M.DUPUIS, J.A.MONTGOMERY       *
          *         J.COMPUT.CHEM.  14, 1347-1363(1993)        *
          **************** 64 BIT LINUX VERSION ****************

  SINCE 1993, STUDENTS AND POSTDOCS WORKING AT IOWA STATE UNIVERSITY
  AND ALSO IN THEIR VARIOUS JOBS AFTER LEAVING ISU HAVE MADE IMPORTANT
  CONTRIBUTIONS TO THE CODE:
     IVANA ADAMOVIC, CHRISTINE AIKENS, YURI ALEXEEV, POOJA ARORA,
     ANDREY ASADCHEV, ROB BELL, PRADIPTA BANDYOPADHYAY, JONATHAN BENTZ,
     BRETT BODE, KURT BRORSEN, CALEB CARLIN, GALINA CHABAN, WEI CHEN,
     CHEOL HO CHOI, PAUL DAY, ALBERT DEFUSCO, NUWAN DESILVA, TIM DUDLEY,
     DMITRI FEDOROV, ALEX FINDLATER, GRAHAM FLETCHER, MARK FREITAG,
     KURT GLAESEMANN, ANASTASIA GUNINA,
     DAN KEMP, GRANT MERRILL, NORIYUKI MINEZAWA, JONATHAN MULLIN,
     TAKESHI NAGATA, SEAN NEDD, HEATHER NETZLOFF, BOSILJKA NJEGIC, RYAN OLSON,
     MIKE PAK, BUU PHAM,
     SPENCER PRUITT, LUKE ROSKOP, JIM SHOEMAKER, LYUDMILA SLIPCHENKO,
     TONY SMITH, SAROM SOK LEANG, JIE SONG, TETSUYA TAKETSUGU, SIMON WEBB,
     PENG XU, SOOHAENG YOO, FEDERICO ZAHARIEV

  ADDITIONAL CODE HAS BEEN PROVIDED BY COLLABORATORS IN OTHER GROUPS:
     IOWA STATE UNIVERSITY:
          JOE IVANIC, AARON WEST, LAIMUTIS BYTAUTAS, KLAUS RUEDENBERG
     UNIVERSITY OF TOKYO: KIMIHIKO HIRAO, TAKAHITO NAKAJIMA,
          TAKAO TSUNEDA, MUNEAKI KAMIYA, SUSUMU YANAGISAWA,
          KIYOSHI YAGI, MAHITO CHIBA, SEIKEN TOKURA, NAOAKI KAWAKAMI
     UNIVERSITY OF AARHUS: FRANK JENSEN
     UNIVERSITY OF IOWA: VISVALDAS KAIRYS, HUI LI
     NATIONAL INST. OF STANDARDS AND TECHNOLOGY: WALT STEVENS, DAVID GARMER
     UNIVERSITY OF PISA: BENEDETTA MENNUCCI, JACOPO TOMASI
     UNIVERSITY OF MEMPHIS: HENRY KURTZ, PRAKASHAN KORAMBATH
     UNIVERSITY OF ALBERTA: TOBY ZENG, MARIUSZ KLOBUKOWSKI
     UNIVERSITY OF NEW ENGLAND: MARK SPACKMAN
     MIE UNIVERSITY: HIROAKI UMEDA
     NAT. INST. OF ADVANCED INDUSTRIAL SCIENCE AND TECHNOLOGY: KAZUO KITAURA
     MICHIGAN STATE UNIVERSITY:
          KAROL KOWALSKI, MARTA WLOCH, JEFFREY GOUR, JESSE LUTZ,
          WEI LI, JUN SHEN, J. EMILIANO DEUSTUA, PIOTR PIECUCH
     UNIVERSITY OF MINNESOTA:
          YINAN SHU
     UNIVERSITY OF SILESIA: MONIKA MUSIAL, STANISLAW KUCHARSKI
     FACULTES UNIVERSITAIRES NOTRE-DAME DE LA PAIX:
          OLIVIER QUINET, BENOIT CHAMPAGNE
     UNIVERSITY OF CALIFORNIA - SANTA BARBARA: BERNARD KIRTMAN
     INSTITUTE FOR MOLECULAR SCIENCE:
          KAZUYA ISHIMURA, MICHIO KATOUDA, AND SHIGERU NAGASE
     UNIVERSITY OF NOTRE DAME: ANNA POMOGAEVA, DAN CHIPMAN
     KYUSHU UNIVERSITY:
          HARUYUKI NAKANO,
          FENG LONG GU, JACEK KORCHOWIEC, MARCIN MAKOWSKI, AND YURIKO AOKI,
          HIROTOSHI MORI AND EISAKU MIYOSHI
     PENNSYLVANIA STATE UNIVERSITY:
          TZVETELIN IORDANOV, CHET SWALINA, JONATHAN SKONE,
          SHARON HAMMES-SCHIFFER
     WASEDA UNIVERSITY:
          MASATO KOBAYASHI, TOMOKO AKAMA, TSUGUKI TOUMA,
          TAKESHI YOSHIKAWA, YASUHIRO IKABATA, JUNJI SEINO,
          YUYA NAKAJIMA, HIROMI NAKAI
     NANJING UNIVERSITY: SHUHUA LI
     UNIVERSITY OF NEBRASKA:
          PEIFENG SU, DEJUN SI, NANDUN THELLAMUREGE, YALI WANG, HUI LI
     UNIVERSITY OF ZURICH: ROBERTO PEVERATI, KIM BALDRIDGE
     N. COPERNICUS UNIVERSITY AND JACKSON STATE UNIVERSITY:
          MARIA BARYSZ
     UNIVERSITY OF COPENHAGEN: Jimmy Kromann, CASPER STEINMANN
     TOKYO INSTITUTE OF TECHNOLOGY: HIROYA NAKATA
     NAGOYA UNIVERSITY: YOSHIO NISHIMOTO, STEPHAN IRLE
     MOSCOW STATE UNIVERSITY: VLADIMIR MIRONOV

 EXECUTION OF GAMESS BEGUN Fri Dec 13 14:27:52 2019

            ECHO OF THE FIRST FEW INPUT CARDS -
 INPUT CARD> $CONTRL SCFTYP=UHF RUNTYP=ENERGY COORD=CART UNITS=ANGS MULT=3 $END             
 INPUT CARD> $SYSTEM MWORDS=200 $END                                                        
 INPUT CARD> $DFT METHOD=GRID DFTTYP=B3LYP $END                                             
 INPUT CARD> $BASIS EXTFIL=.TRUE. GBASIS=6311GDS $END                                       
 INPUT CARD> $GUESS GUESS=HUCKEL $END                                                       
 INPUT CARD> $DATA                                                                          
 INPUT CARD>NITROGEN                                                                        
 INPUT CARD>C1                                                                              
 INPUT CARD>H   7.0   0.0000   0.0000   0.5488                                              
 INPUT CARD>H   7.0   0.0000   0.0000  -0.5488                                              
 INPUT CARD> $END                                                                           
 INPUT CARD>~                                                                               
  200000000 WORDS OF MEMORY AVAILABLE


                    * * * WARNING * * *
 OLD KEYWORD COORD=CART SELECTED, AUTOMATICALLY CHANGED TO COORD=PRINAXIS.
 YOUR MOLECULE'S COORDINATES WILL BE CHANGED TO PRINCIPAL AXES BY
   A) TRANSLATION TO THE CENTER OF MASS, THEN
   B) ROTATION TO HAVE A DIAGONAL MOMENT OF INERTIA TENSOR.

 HOWEVER, NOTHING ELSE IN YOUR INPUT WILL BE ROTATED IN THE SAME WAY,
 SO IF YOU HAVE A $VEC, $VIB, $GRAD, $HESS, EFP PARTICLE COORDINATES,
 OR ANYTHING ELSE THAT DEPENDS ON THE INITIAL ORIENTATION, THAT DATA
 WILL NOT BE USED CORRECTLY IN THIS RUN.

 THE PURPOSE OF COORD=PRINAXIS IS TO BE USED ONCE, ONLY AT THE VERY
 BEGINNING OF A SERIES OF COMPUTATIONS, PERHAPS TO FIND THE SYMMETRY
 UNIQUE ATOMS FROM AN ARBITRARY INITIAL ORIENTATION.

 AFTER THE FIRST RUN, YOU SHOULD USE ONLY COORD=UNIQUE, TO ENSURE THAT
 THE COORDINATES WHICH YOU READ IN ARE THE COORDINATES THAT ARE USED.


     $BASIS REQUESTS READING THE "6311GDS " BASIS SET FROM AN EXTERNAL FILE


     RUN TITLE
     ---------
 NITROGEN                                                                        

 THE POINT GROUP OF THE MOLECULE IS C1      
 THE ORDER OF THE PRINCIPAL AXIS IS     0

 THE MOMENTS OF INERTIA ARE (AMU-ANGSTROM**2)
 IXX=     8.435   IYY=     8.435   IZZ=     0.000

 THE EXTERNAL BASIS SET FILE BEING READ IS
     "/home/akroy/gamess/EXTFILE.txt"

 ATOM      ATOMIC                      COORDINATES (BOHR)
           CHARGE         X                   Y                   Z
 H           7.0     0.0000000000        0.0000000000        1.0370816221
 H           7.0     0.0000000000        0.0000000000       -1.0370816221

          INTERNUCLEAR DISTANCES (ANGS.)
          ------------------------------

                1 H          2 H     

   1 H       0.0000000    1.0976000 *
   2 H       1.0976000 *  0.0000000  

  * ... LESS THAN  3.000


     ATOMIC BASIS SET
     ----------------
 THE CONTRACTED PRIMITIVE FUNCTIONS HAVE BEEN UNNORMALIZED
 THE CONTRACTED BASIS FUNCTIONS ARE NOW NORMALIZED TO UNITY

  SHELL TYPE  PRIMITIVE        EXPONENT          CONTRACTION COEFFICIENT(S)

 H         

      1   S       1          6293.4800000    0.001969788147
      1   S       2           949.0440000    0.014961285923
      1   S       3           218.7760000    0.073500530843
      1   S       4            63.6916000    0.248936765774
      1   S       5            18.8282000    0.602459433142
      1   S       6             2.7202300    0.256201758938

      2   L       7            30.6331000    0.111906079519    0.038311918640
      2   L       8             7.0261400    0.921666654920    0.237403115502
      2   L       9             2.1120500   -0.002569191826    0.817592397779

      3   L      10             0.6840090    1.000000000000    1.000000000000

      4   L      11             0.2008780    1.000000000000    1.000000000000

      5   L      12             0.0639000    1.000000000000    1.000000000000

      6   D      13             0.9130000    1.000000000000

 H         

      7   S      14          6293.4800000    0.001969788147
      7   S      15           949.0440000    0.014961285923
      7   S      16           218.7760000    0.073500530843
      7   S      17            63.6916000    0.248936765774
      7   S      18            18.8282000    0.602459433142
      7   S      19             2.7202300    0.256201758938

      8   L      20            30.6331000    0.111906079519    0.038311918640
      8   L      21             7.0261400    0.921666654920    0.237403115502
      8   L      22             2.1120500   -0.002569191826    0.817592397779

      9   L      23             0.6840090    1.000000000000    1.000000000000

     10   L      24             0.2008780    1.000000000000    1.000000000000

     11   L      25             0.0639000    1.000000000000    1.000000000000

     12   D      26             0.9130000    1.000000000000

 TOTAL NUMBER OF BASIS SET SHELLS             =   12
 NUMBER OF CARTESIAN GAUSSIAN BASIS FUNCTIONS =   46
 NUMBER OF ELECTRONS                          =   14
 CHARGE OF MOLECULE                           =    0
 SPIN MULTIPLICITY                            =    3
 NUMBER OF OCCUPIED ORBITALS (ALPHA)          =    8
 NUMBER OF OCCUPIED ORBITALS (BETA )          =    6
 TOTAL NUMBER OF ATOMS                        =    2
 THE NUCLEAR REPULSION ENERGY IS       23.6239843411

 THIS MOLECULE IS RECOGNIZED AS BEING LINEAR,
 ORBITAL LZ DEGENERACY TOLERANCE ETOLLZ= 1.00E-06

 *** WARNING ***
 KEYWORD DFTTYP IN $DFT IS NOW OBSOLETE.
 PLEASE ENTER DFTTYP IN THE $CONTRL GROUP IN FUTURE INPUT FILES.


     LEBEDEV GRID-BASED DFT OPTIONS
     ------------------------------
     DFTTYP=B3LYP   
     NRAD  =      96     NLEB  =     302
     NRAD0 =      24     NLEB0 =     110
     SWOFF =    5.00E-03 (PURE SCF -> DFT)
     SWITCH=    3.00E-04 (COARSE -> TIGHT GRID)
     THRESH=    0.00E+00 GTHRE=    1.00E+00

 GRIMME'S EMPIRICAL DISPERSION CORRECTION= F

     $CONTRL OPTIONS
     ---------------
 SCFTYP=UHF          RUNTYP=ENERGY       EXETYP=RUN     
 MPLEVL=       0     CITYP =NONE         CCTYP =NONE         VBTYP =NONE    
 DFTTYP=B3LYP        TDDFT =NONE    
 MULT  =       3     ICHARG=       0     NZVAR =       0     COORD =PRINAXIS
 PP    =NONE         RELWFN=NONE         LOCAL =NONE         NUMGRD=       F
 ISPHER=      -1     NOSYM =       0     MAXIT =      30     UNITS =ANGS    
 PLTORB=       F     MOLPLT=       F     AIMPAC=       F     FRIEND=        
 NPRINT=       7     IREST =       0     GEOM  =INPUT   
 NORMF =       0     NORMP =       0     ITOL  =      20     ICUT  =       9
 INTTYP=BEST         GRDTYP=BEST         QMTTOL= 1.0E-06

     $SYSTEM OPTIONS
     ---------------
  REPLICATED MEMORY=   200000000 WORDS (ON EVERY NODE).
 DISTRIBUTED MEMDDI=           0 MILLION WORDS IN AGGREGATE,
 MEMDDI DISTRIBUTED OVER   1 PROCESSORS IS           0 WORDS/PROCESSOR.
 TOTAL MEMORY REQUESTED ON EACH PROCESSOR=   200000000 WORDS.
 TIMLIM=      525600.00 MINUTES, OR     365.0 DAYS.
 PARALL= F  BALTYP=  DLB     KDIAG=    0  COREFL= F
 MXSEQ2=     300 MXSEQ3=     150  mem10=         0

          ----------------
          PROPERTIES INPUT
          ----------------

     MOMENTS            FIELD           POTENTIAL          DENSITY
 IEMOM =       1   IEFLD =       0   IEPOT =       0   IEDEN =       0
 WHERE =COMASS     WHERE =NUCLEI     WHERE =NUCLEI     WHERE =NUCLEI  
 OUTPUT=BOTH       OUTPUT=BOTH       OUTPUT=BOTH       OUTPUT=BOTH    
 IEMINT=       0   IEFINT=       0                     IEDINT=       0
                                                       MORB  =       0
          EXTRAPOLATION IN EFFECT
          DIIS IN EFFECT
          DIIS or SOSCF will be reset if energy rises
 ORBITAL PRINTING OPTION: NPREO=     1    46     2     1

     -------------------------------
     INTEGRAL TRANSFORMATION OPTIONS
     -------------------------------
     NWORD  =            0
     CUTOFF = 1.0E-09     MPTRAN =       0
     DIRTRF =       F     AOINTS =DUP     

          ----------------------
          INTEGRAL INPUT OPTIONS
          ----------------------
 NOPK  =       1 NORDER=       0 SCHWRZ=       F

     ------------------------------------------
     THE POINT GROUP IS C1 , NAXIS= 0, ORDER= 1
     ------------------------------------------

     DIMENSIONS OF THE SYMMETRY SUBSPACES ARE
 A   =   46

 ..... DONE SETTING UP THE RUN .....
 STEP CPU TIME =     0.00 TOTAL CPU TIME =          0.0 (      0.0 MIN)
 TOTAL WALL CLOCK TIME=          0.0 SECONDS, CPU UTILIZATION IS     0.00%

          ********************
          1 ELECTRON INTEGRALS
          ********************
 ...... END OF ONE-ELECTRON INTEGRALS ......
 STEP CPU TIME =     0.00 TOTAL CPU TIME =          0.0 (      0.0 MIN)
 TOTAL WALL CLOCK TIME=          0.0 SECONDS, CPU UTILIZATION IS     0.00%

          -------------
          GUESS OPTIONS
          -------------
          GUESS =HUCKEL            NORB  =       0          NORDER=       0
          MIX   =       F          PRTMO =       F          PUNMO =       F
          TOLZ  = 1.0E-08          TOLE  = 1.0E-05
          SYMDEN=       F          PURIFY=       F

 INITIAL GUESS ORBITALS GENERATED BY HUCKEL   ROUTINE.
 HUCKEL GUESS REQUIRES     17602 WORDS.

 SYMMETRIES FOR INITIAL GUESS ORBITALS FOLLOW.  ALPHA SET(S).
     8 ORBITALS ARE OCCUPIED (    2 CORE ORBITALS).
     3=A        4=A        5=A        6=A        7=A        8=A        9=A   
    10=A       11=A       12=A       13=A       14=A       15=A       16=A   
    17=A       18=A   

 SYMMETRIES FOR INITIAL GUESS ORBITALS FOLLOW.   BETA SET(S).
     6 ORBITALS ARE OCCUPIED (    2 CORE ORBITALS).
     3=A        4=A        5=A        6=A        7=A        8=A        9=A   
    10=A       11=A       12=A       13=A       14=A       15=A       16=A   
 ...... END OF INITIAL ORBITAL SELECTION ......
 STEP CPU TIME =     0.00 TOTAL CPU TIME =          0.0 (      0.0 MIN)
 TOTAL WALL CLOCK TIME=          0.0 SECONDS, CPU UTILIZATION IS     0.00%

                    ----------------------
                    AO INTEGRAL TECHNOLOGY
                    ----------------------
     S,P,L SHELL ROTATED AXIS INTEGRALS, REPROGRAMMED BY
        KAZUYA ISHIMURA (IMS) AND JOSE SIERRA (SYNSTAR).
     S,P,D,L SHELL ROTATED AXIS INTEGRALS PROGRAMMED BY
        KAZUYA ISHIMURA (INSTITUTE FOR MOLECULAR SCIENCE).
     S,P,D,F,G SHELL TO TOTAL QUARTET ANGULAR MOMENTUM SUM 5,
        ERIC PROGRAM BY GRAHAM FLETCHER (ELORET AND NASA ADVANCED
        SUPERCOMPUTING DIVISION, AMES RESEARCH CENTER).
     S,P,D,F,G,L SHELL GENERAL RYS QUADRATURE PROGRAMMED BY
        MICHEL DUPUIS (PACIFIC NORTHWEST NATIONAL LABORATORY).

          --------------------
          2 ELECTRON INTEGRALS
          --------------------

 THE -PK- OPTION IS OFF, THE INTEGRALS ARE NOT IN SUPERMATRIX FORM.
 STORING   15000 INTEGRALS/RECORD ON DISK, USING 12 BYTES/INTEGRAL.
 TWO ELECTRON INTEGRAL EVALUATION REQUIRES   90474 WORDS OF MEMORY.
 II,JST,KST,LST =  1  1  1  1 NREC =         1 INTLOC =    1
 II,JST,KST,LST =  2  1  1  1 NREC =         1 INTLOC =    2
 II,JST,KST,LST =  3  1  1  1 NREC =         1 INTLOC =   34
 II,JST,KST,LST =  4  1  1  1 NREC =         1 INTLOC =  214
 II,JST,KST,LST =  5  1  1  1 NREC =         1 INTLOC =  776
 II,JST,KST,LST =  6  1  1  1 NREC =         1 INTLOC = 2074
 II,JST,KST,LST =  7  1  1  1 NREC =         1 INTLOC = 5929
 II,JST,KST,LST =  8  1  1  1 NREC =         1 INTLOC = 8155
 II,JST,KST,LST =  9  1  1  1 NREC =         2 INTLOC = 3925
 II,JST,KST,LST = 10  1  1  1 NREC =         3 INTLOC = 5167
 II,JST,KST,LST = 11  1  1  1 NREC =         4 INTLOC =13347
 II,JST,KST,LST = 12  1  1  1 NREC =         7 INTLOC =   55
 TOTAL NUMBER OF NONZERO TWO-ELECTRON INTEGRALS =              154253
         11 INTEGRAL RECORDS WERE STORED ON DISK FILE  8.
  ...... END OF TWO-ELECTRON INTEGRALS .....
 STEP CPU TIME =     0.02 TOTAL CPU TIME =          0.0 (      0.0 MIN)
 TOTAL WALL CLOCK TIME=          0.0 SECONDS, CPU UTILIZATION IS    66.67%

          ---------------------------
              U-B3LYP SCF CALCULATION
          ---------------------------

     NUCLEAR ENERGY =        23.6239843411
     MAXIT = 30     NPUNCH=  2     MULT=  3
     EXTRAP=T  DAMP=F  SHIFT=F  RSTRCT=F  DIIS=T  SOSCF=F
         DENSITY MATRIX CONVERGENCE THRESHOLD=  1.00E-05
     COARSE -> FINE DFT GRID SWITCH THRESHOLD=  3.00E-04 (SWITCH IN $DFT)
                   HF -> DFT SWITCH THRESHOLD=  5.00E-03 (SWOFF IN $DFT)
     MEMORY REQUIRED FOR UHF/ROHF ITERS=    158150 WORDS.

 DFT CODE IS SWITCHING FROM THE FINE GRID NRAD= 96,  NLEB=  302
                      TO THE COARSE GRID NRAD0= 24, NLEB0=  110

     EXCHANGE FUNCTIONAL   =B88&HFX   
     CORRELATION FUNCTIONAL=LYP88&VWN5
     DFT THRESHOLD         =.690E-07
     GRID CHANGE THRESHOLD =.300E-03
 FOR AN EULER-MACLAURIN QUADRATURE USING  96 RADIAL POINTS:
 SMALLEST GAUSSIAN PRIMITIVE EXPONENT=        0.0639000000 OF TYPE -P-
 ON ATOM NUMBER   1 HAS RADIAL NORMALIZATION=  1.000000
  LARGEST GAUSSIAN PRIMITIVE EXPONENT=     6293.4800000000 OF TYPE -S-
 ON ATOM NUMBER   1 HAS RADIAL NORMALIZATION=  1.000000
 DFT IS SWITCHED OFF, PERFORMING PURE SCF UNTIL SWOFF THRESHOLD IS REACHED.

 ITER EX      TOTAL ENERGY        E CHANGE  DENSITY CHANGE    DIIS ERROR
   1  0     -108.2680249363  -108.2680249363   0.324888558   1.606362050
          * * *   INITIATING DIIS PROCEDURE   * * *
   2  1     -108.6707329334    -0.4027079971   0.081041587   0.083554892
   3  2     -108.6835811068    -0.0128481734   0.033055173   0.032058144
   4  3     -108.6847063423    -0.0011252355   0.011898267   0.009043035
   5  4     -108.6848281060    -0.0001217637   0.003953720   0.002523975
 CONVERGED TO SWOFF, SO DFT CALCULATION IS NOW SWITCHED ON.
          * * *   INITIATING DIIS PROCEDURE   * * *
   6  5     -109.2096341014    -0.5248059954   0.110619945   0.156938338
   7  6     -109.2251742951    -0.0155401937   0.032042191   0.019522920
   8  7     -109.2258170126    -0.0006427175   0.013409659   0.015411928
   9  8     -109.2263234443    -0.0005064317   0.002183465   0.001846617
  10  9     -109.2263284217    -0.0000049774   0.000395266   0.000261924
  11 10     -109.2263285954    -0.0000001737   0.000048042   0.000031253
 DFT CODE IS SWITCHING BACK TO THE FINE GRID
          * * *   INITIATING DIIS PROCEDURE   * * *
  12 11     -109.2257919133     0.0005366821   0.003420397   0.000832229
  13 12     -109.2257924179    -0.0000005046   0.000250512   0.000136063
  14 13     -109.2257922363     0.0000001817   0.000139327   0.000426699
  15 14     -109.2257924475    -0.0000002112   0.000038843   0.000061240
  16 15     -109.2257924535    -0.0000000061   0.000005052   0.000008405
  17 16     -109.2257924536    -0.0000000001   0.000000976   0.000000781

          -----------------
          DENSITY CONVERGED
          -----------------
     TIME TO FORM FOCK OPERATORS=       1.5 SECONDS (       0.1 SEC/ITER)
     TIME TO SOLVE SCF EQUATIONS=       0.0 SECONDS (       0.0 SEC/ITER)

 FINAL U-B3LYP ENERGY IS     -109.2257924536 AFTER  17 ITERATIONS
 DFT EXCHANGE + CORRELATION ENERGY =       -11.0429704701
 TOTAL ELECTRON NUMBER             =        13.9999998292

          --------------------
          SPIN SZ   =    1.000
          S-SQUARED =    2.005
          --------------------

 LZ VALUE ANALYSIS FOR THE MOS
 ----------------------------------------
 MO     1 (    1) HAS LZ(WEIGHT)= 0.00(100.0%) 
 MO     2 (    2) HAS LZ(WEIGHT)= 0.00(100.0%) 
 MO     3 (    3) HAS LZ(WEIGHT)= 0.00(100.0%) 
 MO     4 (    4) HAS LZ(WEIGHT)= 0.00(100.0%) 
 MO     5 (    5) HAS LZ(WEIGHT)= 0.00(100.0%) 
 MO     6 (    6) HAS LZ(WEIGHT)= 0.00(100.0%) 
 MO     7 (    7) HAS LZ(WEIGHT)= 0.00(100.0%) 
 MO     8 (    8) HAS LZ(WEIGHT)= 0.00(100.0%) 
 MO     9 (    9) HAS LZ(WEIGHT)= 0.00(100.0%) 
 MO    10 (   10) HAS LZ(WEIGHT)= 0.00(100.0%) 
 MO    11 (   11) HAS LZ(WEIGHT)= 0.00(100.0%) 
 MO    12 (   12) HAS LZ(WEIGHT)= 0.00(100.0%) 
 MO    13 (   13) HAS LZ(WEIGHT)= 0.00(100.0%) 
 MO    14 (   14) HAS LZ(WEIGHT)= 0.00(100.0%) 
 MO    15 (   15) HAS LZ(WEIGHT)= 0.00(100.0%) 
 MO    16 (   16) HAS LZ(WEIGHT)= 0.00(100.0%) 
 MO    17 (   17) HAS LZ(WEIGHT)= 0.00(100.0%) 
 MO    18 (   18) HAS LZ(WEIGHT)= 0.00(100.0%) 
 MO    19 (   19) HAS LZ(WEIGHT)= 0.00(100.0%) 
 MO    20 (   20) HAS LZ(WEIGHT)= 0.00(100.0%) 
 MO    21 (   21) HAS LZ(WEIGHT)= 0.00(100.0%) 
 MO    22 (   22) HAS LZ(WEIGHT)= 0.00(100.0%) 
 MO    23 (   23) HAS LZ(WEIGHT)= 0.00(100.0%) 
 MO    24 (   24) HAS LZ(WEIGHT)= 0.00(100.0%) 
 MO    25 (   25) HAS LZ(WEIGHT)= 0.00(100.0%) 
 MO    26 (   26) HAS LZ(WEIGHT)= 0.00(100.0%) 
 MO    27 (   27) HAS LZ(WEIGHT)= 0.00(100.0%) 
 MO    28 (   28) HAS LZ(WEIGHT)= 0.00(100.0%) 
 MO    29 (   29) HAS LZ(WEIGHT)= 0.00(100.0%) 
 MO    30 (   30) HAS LZ(WEIGHT)= 0.00(100.0%) 
 MO    31 (   31) HAS LZ(WEIGHT)= 0.00(100.0%) 
 MO    32 (   32) HAS LZ(WEIGHT)= 0.00(100.0%) 
 MO    33 (   33) HAS LZ(WEIGHT)= 0.00(100.0%) 
 MO    34 (   34) HAS LZ(WEIGHT)= 0.00(100.0%) 
 MO    35 (   35) HAS LZ(WEIGHT)= 0.00(100.0%) 
 MO    36 (   36) HAS LZ(WEIGHT)= 0.00(100.0%) 
 MO    37 (   37) HAS LZ(WEIGHT)= 0.00(100.0%) 
 MO    38 (   38) HAS LZ(WEIGHT)= 0.00(100.0%) 
 MO    39 (   39) HAS LZ(WEIGHT)= 0.00(100.0%) 
 MO    40 (   40) HAS LZ(WEIGHT)= 0.00(100.0%) 
 MO    41 (   41) HAS LZ(WEIGHT)= 0.00(100.0%) 
 MO    42 (   42) HAS LZ(WEIGHT)= 0.00(100.0%) 
 MO    43 (   43) HAS LZ(WEIGHT)= 0.00(100.0%) 
 MO    44 (   44) HAS LZ(WEIGHT)= 0.00(100.0%) 
 MO    45 (   45) HAS LZ(WEIGHT)= 0.00(100.0%) 
 MO    46 (   46) HAS LZ(WEIGHT)= 0.00(100.0%) 

  ----- ALPHA SET ----- 

          ------------
          EIGENVECTORS
          ------------

                      1          2          3          4          5
                  -14.4374   -14.4357    -1.1524    -0.6210    -0.5071
                     A          A          A          A          A   
    1  N  1  S    0.394172  -0.394071  -0.091488   0.084490  -0.000000
    2  N  1  S    0.326890  -0.326795  -0.144222   0.136867  -0.000000
    3  N  1  X    0.000000   0.000000  -0.000000   0.000000  -0.070627
    4  N  1  Y    0.000000   0.000000  -0.000000   0.000000   0.204990
    5  N  1  Z   -0.001125   0.001032  -0.113394  -0.102415  -0.000000
    6  N  1  S    0.016435  -0.015143   0.400802  -0.407953  -0.000000
    7  N  1  X    0.000000   0.000000  -0.000000   0.000000  -0.104655
    8  N  1  Y    0.000000   0.000000  -0.000000   0.000000   0.303754
    9  N  1  Z    0.000189  -0.002712  -0.139257  -0.148718  -0.000000
   10  N  1  S    0.002073  -0.007383   0.166865  -0.457154  -0.000000
   11  N  1  X    0.000000   0.000000  -0.000000   0.000000  -0.064319
   12  N  1  Y    0.000000   0.000000  -0.000000   0.000000   0.186681
   13  N  1  Z   -0.000352   0.002567  -0.025985  -0.051821  -0.000000
   14  N  1  S   -0.000500   0.015161  -0.009184   0.235662  -0.000000
   15  N  1  X    0.000000   0.000000  -0.000000   0.000000  -0.002640
   16  N  1  Y    0.000000   0.000000  -0.000000   0.000000   0.007663
   17  N  1  Z    0.000446  -0.003969   0.007942  -0.071450  -0.000000
   18  N  1 XX   -0.005221   0.005288  -0.016330   0.001391  -0.000000
   19  N  1 YY   -0.005082   0.005088  -0.016442  -0.001975  -0.000000
   20  N  1 ZZ   -0.004695   0.006442   0.024302   0.005137  -0.000000
   21  N  1 XY   -0.000063   0.000090   0.000051   0.001520  -0.000000
   22  N  1 XZ    0.000000   0.000000  -0.000000   0.000000   0.009007
   23  N  1 YZ    0.000000   0.000000  -0.000000   0.000000  -0.026141
   24  N  2  S    0.393938   0.394304  -0.091488  -0.084490  -0.000000
   25  N  2  S    0.326696   0.326988  -0.144221  -0.136867  -0.000000
   26  N  2  X    0.000000   0.000000  -0.000000   0.000000  -0.070627
   27  N  2  Y    0.000000   0.000000  -0.000000   0.000000   0.204990
   28  N  2  Z    0.001124   0.001033   0.113394  -0.102415  -0.000000
   29  N  2  S    0.016426   0.015153   0.400808   0.407954  -0.000000
   30  N  2  X    0.000000   0.000000  -0.000000   0.000000  -0.104656
   31  N  2  Y    0.000000   0.000000  -0.000000   0.000000   0.303754
   32  N  2  Z   -0.000188  -0.002712   0.139259  -0.148718  -0.000000
   33  N  2  S    0.002072   0.007384   0.166837   0.457157  -0.000000
   34  N  2  X    0.000000   0.000000  -0.000000   0.000000  -0.064319
   35  N  2  Y    0.000000   0.000000  -0.000000   0.000000   0.186681
   36  N  2  Z    0.000351   0.002567   0.025998  -0.051822  -0.000000
   37  N  2  S   -0.000560  -0.015161  -0.007987  -0.235664  -0.000000
   38  N  2  X    0.000000   0.000000  -0.000000   0.000000  -0.002641
   39  N  2  Y    0.000000   0.000000  -0.000000   0.000000   0.007665
   40  N  2  Z   -0.000463  -0.003970  -0.007620  -0.071450  -0.000000
   41  N  2 XX   -0.005219  -0.005291  -0.016329  -0.001392  -0.000000
   42  N  2 YY   -0.005079  -0.005091  -0.016441   0.001974  -0.000000
   43  N  2 ZZ   -0.004692  -0.006445   0.024307  -0.005138  -0.000000
   44  N  2 XY   -0.000063  -0.000090   0.000051  -0.001520  -0.000000
   45  N  2 XZ    0.000000   0.000000  -0.000000   0.000000  -0.009007
   46  N  2 YZ    0.000000   0.000000  -0.000000   0.000000   0.026141

                      6          7          8          9         10
                   -0.5027    -0.4845    -0.1546    -0.0573     0.0578
                     A          A          A          A          A   
    1  N  1  S    0.031368   0.000000  -0.000000   0.000000   0.025923
    2  N  1  S    0.050224   0.000000  -0.000000   0.000000   0.046538
    3  N  1  X    0.000000   0.198163   0.077719  -0.211433   0.000000
    4  N  1  Y    0.000000   0.068275  -0.225570  -0.072848   0.000000
    5  N  1  Z   -0.222899   0.000000  -0.000000   0.000000  -0.057326
    6  N  1  S   -0.148854   0.000000  -0.000000   0.000000  -0.123346
    7  N  1  X    0.000000   0.298700   0.116227  -0.320370   0.000000
    8  N  1  Y    0.000000   0.102914  -0.337334  -0.110382   0.000000
    9  N  1  Z   -0.307659   0.000000  -0.000000   0.000000  -0.060091
   10  N  1  S   -0.257405   0.000000  -0.000000   0.000000  -0.606097
   11  N  1  X    0.000000   0.194852   0.146991  -0.435407   0.000000
   12  N  1  Y    0.000000   0.067135  -0.426626  -0.150017   0.000000
   13  N  1  Z   -0.173313   0.000000  -0.000000   0.000000  -0.193989
   14  N  1  S   -0.032847   0.000000  -0.000000   0.000000   0.899277
   15  N  1  X    0.000000   0.008145   0.071612  -0.324449   0.000000
   16  N  1  Y    0.000000   0.002806  -0.207843  -0.111787   0.000000
   17  N  1  Z   -0.002621   0.000000  -0.000000   0.000000   0.404140
   18  N  1 XX   -0.009758   0.000000  -0.000000   0.000000   0.017761
   19  N  1 YY   -0.012030   0.000000  -0.000000   0.000000   0.016896
   20  N  1 ZZ    0.015585   0.000000  -0.000000   0.000000   0.009363
   21  N  1 XY    0.001025   0.000000  -0.000000   0.000000   0.000391
   22  N  1 XZ    0.000000  -0.031365   0.008793  -0.024781   0.000000
   23  N  1 YZ    0.000000  -0.010807  -0.025521  -0.008538   0.000000
   24  N  2  S    0.031368   0.000000  -0.000000   0.000000   0.025920
   25  N  2  S    0.050225   0.000000  -0.000000   0.000000   0.046534
   26  N  2  X    0.000000   0.198163  -0.077719   0.211433   0.000000
   27  N  2  Y    0.000000   0.068275   0.225570   0.072848   0.000000
   28  N  2  Z    0.222899   0.000000  -0.000000   0.000000   0.057324
   29  N  2  S   -0.148854   0.000000  -0.000000   0.000000  -0.123313
   30  N  2  X    0.000000   0.298700  -0.116227   0.320370   0.000000
   31  N  2  Y    0.000000   0.102914   0.337334   0.110382   0.000000
   32  N  2  Z    0.307659   0.000000  -0.000000   0.000000   0.060080
   33  N  2  S   -0.257406   0.000000  -0.000000   0.000000  -0.606319
   34  N  2  X    0.000000   0.194852  -0.146992   0.435407   0.000000
   35  N  2  Y    0.000000   0.067134   0.426626   0.150017   0.000000
   36  N  2  Z    0.173316   0.000000  -0.000000   0.000000   0.193894
   37  N  2  S   -0.032670   0.000000  -0.000000   0.000000   0.904147
   38  N  2  X    0.000000   0.008147  -0.071611   0.324448   0.000000
   39  N  2  Y    0.000000   0.002807   0.207843   0.111786   0.000000
   40  N  2  Z    0.002668   0.000000  -0.000000   0.000000  -0.402708
   41  N  2 XX   -0.009758   0.000000  -0.000000   0.000000   0.017769
   42  N  2 YY   -0.012029   0.000000  -0.000000   0.000000   0.016904
   43  N  2 ZZ    0.015587   0.000000  -0.000000   0.000000   0.009362
   44  N  2 XY    0.001025   0.000000  -0.000000   0.000000   0.000391
   45  N  2 XZ    0.000000   0.031365   0.008793  -0.024781   0.000000
   46  N  2 YZ    0.000000   0.010807  -0.025521  -0.008538   0.000000

                     11         12         13         14         15
                    0.0757     0.0929     0.0932     0.1433     0.1602
                     A          A          A          A          A   
    1  N  1  S   -0.023303  -0.000000  -0.000000   0.011516  -0.000000
    2  N  1  S   -0.038677  -0.000000  -0.000000   0.022223  -0.000000
    3  N  1  X   -0.000000   0.025254  -0.069980  -0.000000  -0.030853
    4  N  1  Y   -0.000000  -0.070099  -0.025216  -0.000000   0.089559
    5  N  1  Z    0.022131  -0.000000  -0.000000   0.026351  -0.000000
    6  N  1  S    0.145810  -0.000000  -0.000000  -0.039459  -0.000000
    7  N  1  X   -0.000000   0.026350  -0.075899  -0.000000  -0.035092
    8  N  1  Y   -0.000000  -0.073021  -0.027304  -0.000000   0.101863
    9  N  1  Z    0.015864  -0.000000  -0.000000   0.020108  -0.000000
   10  N  1  S   -0.034842  -0.000000  -0.000000  -0.451546  -0.000000
   11  N  1  X   -0.000000   0.077250  -0.216768  -0.000000  -0.132246
   12  N  1  Y   -0.000000  -0.214287  -0.078056  -0.000000   0.383882
   13  N  1  Z    0.223509  -0.000000  -0.000000   0.042030  -0.000000
   14  N  1  S   10.930482  -0.000000  -0.000000   0.067334  -0.000000
   15  N  1  X   -0.000000  -0.214819   0.596606  -0.000000   0.726234
   16  N  1  Y   -0.000000   0.596216   0.214945  -0.000000  -2.108049
   17  N  1  Z   -3.664858  -0.000000  -0.000000  -1.538504  -0.000000
   18  N  1 XX    0.007088  -0.000000  -0.000000   0.028293  -0.000000
   19  N  1 YY    0.007581  -0.000000  -0.000000   0.027859  -0.000000
   20  N  1 ZZ   -0.009949  -0.000000  -0.000000  -0.014868  -0.000000
   21  N  1 XY   -0.000221  -0.000000  -0.000000   0.000196  -0.000000
   22  N  1 XZ   -0.000000  -0.005430   0.016213  -0.000000   0.000249
   23  N  1 YZ   -0.000000   0.015020   0.005823  -0.000000  -0.000723
   24  N  2  S    0.023305  -0.000000  -0.000000   0.011523  -0.000000
   25  N  2  S    0.038678  -0.000000  -0.000000   0.022237  -0.000000
   26  N  2  X   -0.000000   0.025254  -0.069980  -0.000000   0.030853
   27  N  2  Y   -0.000000  -0.070099  -0.025216  -0.000000  -0.089560
   28  N  2  Z    0.022149  -0.000000  -0.000000  -0.026336  -0.000000
   29  N  2  S   -0.145817  -0.000000  -0.000000  -0.039482  -0.000000
   30  N  2  X   -0.000000   0.026350  -0.075898  -0.000000   0.035092
   31  N  2  Y   -0.000000  -0.073020  -0.027304  -0.000000  -0.101864
   32  N  2  Z    0.015889  -0.000000  -0.000000  -0.020106  -0.000000
   33  N  2  S    0.034827  -0.000000  -0.000000  -0.451764  -0.000000
   34  N  2  X   -0.000000   0.077251  -0.216769  -0.000000   0.132246
   35  N  2  Y   -0.000000  -0.214288  -0.078055  -0.000000  -0.383882
   36  N  2  Z    0.223524  -0.000000  -0.000000  -0.041852  -0.000000
   37  N  2  S  -10.930346  -0.000000  -0.000000   0.078769  -0.000000
   38  N  2  X   -0.000000  -0.214822   0.596611  -0.000000  -0.726233
   39  N  2  Y   -0.000000   0.596218   0.214944  -0.000000   2.108049
   40  N  2  Z   -3.665130  -0.000000  -0.000000   1.541423  -0.000000
   41  N  2 XX   -0.007100  -0.000000  -0.000000   0.028304  -0.000000
   42  N  2 YY   -0.007593  -0.000000  -0.000000   0.027870  -0.000000
   43  N  2 ZZ    0.009945  -0.000000  -0.000000  -0.014857  -0.000000
   44  N  2 XY    0.000223  -0.000000  -0.000000   0.000196  -0.000000
   45  N  2 XZ   -0.000000   0.005430  -0.016213  -0.000000   0.000249
   46  N  2 YZ   -0.000000  -0.015020  -0.005823  -0.000000  -0.000723

                     16         17         18         19         20
                    0.1700     0.2561     0.4842     0.6540     0.7058
                     A          A          A          A          A   
    1  N  1  S    0.000000   0.016204  -0.051443  -0.001239   0.000000
    2  N  1  S    0.000000   0.031651  -0.091590  -0.007669   0.000000
    3  N  1  X   -0.101316   0.000000   0.000000   0.000000   0.053903
    4  N  1  Y   -0.034904   0.000000   0.000000   0.000000  -0.154719
    5  N  1  Z    0.000000  -0.042249  -0.127732   0.114387   0.000000
    6  N  1  S    0.000000  -0.051835   0.205386  -0.189855   0.000000
    7  N  1  X   -0.120921   0.000000   0.000000   0.000000   0.191814
    8  N  1  Y   -0.041658   0.000000   0.000000   0.000000  -0.550448
    9  N  1  Z    0.000000  -0.010732  -0.129565   0.442051   0.000000
   10  N  1  S    0.000000  -0.709182   4.917362   0.000442   0.000000
   11  N  1  X   -0.427284   0.000000   0.000000   0.000000  -0.326774
   12  N  1  Y   -0.147205   0.000000   0.000000   0.000000   0.937894
   13  N  1  Z    0.000000  -0.338645  -3.163544  -1.330301   0.000000
   14  N  1  S    0.000000  40.091262  -4.931309   0.169189   0.000000
   15  N  1  X    2.100321   0.000000   0.000000   0.000000   0.147707
   16  N  1  Y    0.723572   0.000000   0.000000   0.000000  -0.423952
   17  N  1  Z    0.000000 -10.653773   1.752851   1.042567   0.000000
   18  N  1 XX    0.000000   0.026272   0.004265  -0.010387   0.000000
   19  N  1 YY    0.000000   0.026264   0.006107  -0.012018   0.000000
   20  N  1 ZZ    0.000000   0.002204  -0.090523  -0.071029   0.000000
   21  N  1 XY    0.000000   0.000010  -0.000831   0.000736   0.000000
   22  N  1 XZ   -0.000957   0.000000   0.000000   0.000000  -0.016512
   23  N  1 YZ   -0.000330   0.000000   0.000000   0.000000   0.047360
   24  N  2  S    0.000000  -0.016203   0.051439  -0.001245   0.000000
   25  N  2  S    0.000000  -0.031654   0.091585  -0.007677   0.000000
   26  N  2  X    0.101316   0.000000   0.000000   0.000000   0.053904
   27  N  2  Y    0.034904   0.000000   0.000000   0.000000  -0.154721
   28  N  2  Z    0.000000  -0.042234  -0.127737  -0.114396   0.000000
   29  N  2  S    0.000000   0.051843  -0.205346  -0.189783   0.000000
   30  N  2  X    0.120921   0.000000   0.000000   0.000000   0.191819
   31  N  2  Y    0.041658   0.000000   0.000000   0.000000  -0.550456
   32  N  2  Z    0.000000  -0.010678  -0.129592  -0.442090   0.000000
   33  N  2  S    0.000000   0.709124  -4.917438   0.000350   0.000000
   34  N  2  X    0.427285   0.000000   0.000000   0.000000  -0.326788
   35  N  2  Y    0.147205   0.000000   0.000000   0.000000   0.937917
   36  N  2  Z    0.000000  -0.338784  -3.163488   1.330331   0.000000
   37  N  2  S    0.000000 -40.091238   4.931333   0.165894   0.000000
   38  N  2  X   -2.100320   0.000000   0.000000   0.000000   0.147718
   39  N  2  Y   -0.723573   0.000000   0.000000   0.000000  -0.423968
   40  N  2  Z    0.000000 -10.653220   1.752847  -1.043498   0.000000
   41  N  2 XX    0.000000  -0.026306  -0.004260  -0.010374   0.000000
   42  N  2 YY    0.000000  -0.026297  -0.006102  -0.012005   0.000000
   43  N  2 ZZ    0.000000  -0.002236   0.090529  -0.071020   0.000000
   44  N  2 XY    0.000000  -0.000004   0.000832   0.000736   0.000000
   45  N  2 XZ   -0.000957   0.000000   0.000000   0.000000   0.016512
   46  N  2 YZ   -0.000330   0.000000   0.000000   0.000000  -0.047360

                     21         22         23         24         25
                    0.7064     0.7901     0.8022     0.8044     0.8618
                     A          A          A          A          A   
    1  N  1  S    0.000000  -0.000000  -0.000000   0.070012  -0.000964
    2  N  1  S    0.000000  -0.000000  -0.000000   0.087516   0.008573
    3  N  1  X   -0.153629   0.061113  -0.180560   0.000000  -0.000000
    4  N  1  Y   -0.053532  -0.177403  -0.062200   0.000000  -0.000000
    5  N  1  Z    0.000000  -0.000000  -0.000000  -0.058680   0.278048
    6  N  1  S    0.000000  -0.000000  -0.000000  -1.089754   0.203499
    7  N  1  X   -0.557232   0.196894  -0.584353   0.000000  -0.000000
    8  N  1  Y   -0.194126  -0.571561  -0.201301   0.000000  -0.000000
    9  N  1  Z    0.000000  -0.000000  -0.000000  -0.154879   0.737027
   10  N  1  S    0.000000  -0.000000  -0.000000   1.896197  -0.110605
   11  N  1  X    0.936839  -0.566333   1.632955   0.000000  -0.000000
   12  N  1  Y    0.326424   1.643992   0.562526   0.000000  -0.000000
   13  N  1  Z    0.000000  -0.000000  -0.000000   0.131668  -1.290019
   14  N  1  S    0.000000  -0.000000  -0.000000  -0.690166  10.528561
   15  N  1  X   -0.423644   0.414856  -1.192618   0.000000  -0.000000
   16  N  1  Y   -0.147614  -1.204269  -0.410836   0.000000  -0.000000
   17  N  1  Z    0.000000  -0.000000  -0.000000   0.283024  -2.408349
   18  N  1 XX    0.000000  -0.000000  -0.000000  -0.146631   0.006992
   19  N  1 YY    0.000000  -0.000000  -0.000000  -0.151236   0.006670
   20  N  1 ZZ    0.000000  -0.000000  -0.000000  -0.207311   0.147474
   21  N  1 XY    0.000000  -0.000000  -0.000000   0.002079   0.000148
   22  N  1 XZ    0.050240   0.000228  -0.001899   0.000000  -0.000000
   23  N  1 YZ    0.017494  -0.000662  -0.000654   0.000000  -0.000000
   24  N  2  S    0.000000  -0.000000  -0.000000   0.070022   0.000951
   25  N  2  S    0.000000  -0.000000  -0.000000   0.087529  -0.008593
   26  N  2  X   -0.153631  -0.061111   0.180557   0.000000  -0.000000
   27  N  2  Y   -0.053532   0.177401   0.062200   0.000000  -0.000000
   28  N  2  Z    0.000000  -0.000000  -0.000000   0.058707   0.278032
   29  N  2  S    0.000000  -0.000000  -0.000000  -1.089927  -0.203319
   30  N  2  X   -0.557240  -0.196889   0.584346   0.000000  -0.000000
   31  N  2  Y   -0.194126   0.571554   0.201300   0.000000  -0.000000
   32  N  2  Z    0.000000  -0.000000  -0.000000   0.154984   0.736976
   33  N  2  S    0.000000  -0.000000  -0.000000   1.896791   0.110305
   34  N  2  X    0.936861   0.566325  -1.632943   0.000000  -0.000000
   35  N  2  Y    0.326424  -1.643980  -0.562525   0.000000  -0.000000
   36  N  2  Z    0.000000  -0.000000  -0.000000  -0.131673  -1.289916
   37  N  2  S    0.000000  -0.000000  -0.000000  -0.691517 -10.528438
   38  N  2  X   -0.423659  -0.414852   1.192612   0.000000  -0.000000
   39  N  2  Y   -0.147613   1.204263   0.410836   0.000000  -0.000000
   40  N  2  Z    0.000000  -0.000000  -0.000000  -0.283296  -2.408347
   41  N  2 XX    0.000000  -0.000000  -0.000000  -0.146659  -0.006983
   42  N  2 YY    0.000000  -0.000000  -0.000000  -0.151263  -0.006659
   43  N  2 ZZ    0.000000  -0.000000  -0.000000  -0.207336  -0.147455
   44  N  2 XY    0.000000  -0.000000  -0.000000   0.002079  -0.000146
   45  N  2 XZ   -0.050240   0.000228  -0.001899   0.000000  -0.000000
   46  N  2 YZ   -0.017494  -0.000662  -0.000654   0.000000  -0.000000

                     26         27         28         29         30
                    1.1518     1.6564     1.6582     1.6588     1.6607
                     A          A          A          A          A   
    1  N  1  S   -0.082955   0.000000  -0.000081  -0.000000  -0.000000
    2  N  1  S   -0.113115   0.000000   0.000764  -0.000000  -0.000000
    3  N  1  X   -0.000000  -0.000000   0.000000  -0.026527   0.080082
    4  N  1  Y   -0.000000  -0.000000   0.000000   0.076989   0.027592
    5  N  1  Z   -0.136078  -0.000000   0.002032  -0.000000  -0.000000
    6  N  1  S    1.397269  -0.000003  -0.000072  -0.000000  -0.000000
    7  N  1  X   -0.000000  -0.000000   0.000000  -0.053780   0.162251
    8  N  1  Y   -0.000000  -0.000000   0.000000   0.156087   0.055904
    9  N  1  Z   -0.189008  -0.000001   0.001122  -0.000000  -0.000000
   10  N  1  S   -8.070022   0.000017  -0.008955  -0.000000  -0.000000
   11  N  1  X   -0.000000  -0.000000   0.000000   0.019343  -0.058207
   12  N  1  Y   -0.000000  -0.000000   0.000000  -0.056140  -0.020055
   13  N  1  Z    3.209161  -0.000002   0.000581  -0.000000  -0.000000
   14  N  1  S   17.101845  -0.000203   0.002670  -0.000000  -0.000000
   15  N  1  X   -0.000000  -0.000000   0.000000  -0.000428   0.002195
   16  N  1  Y   -0.000000  -0.000000   0.000000   0.001242   0.000756
   17  N  1  Z   -4.550910   0.000054  -0.002312  -0.000000  -0.000000
   18  N  1 XX    0.228735  -0.353249   0.453317  -0.000000  -0.000000
   19  N  1 YY    0.231104   0.353248  -0.450149  -0.000000  -0.000000
   20  N  1 ZZ    0.112099   0.000000   0.006555  -0.000000  -0.000000
   21  N  1 XY   -0.001067   0.521632   0.407884  -0.000000  -0.000000
   22  N  1 XZ   -0.000000  -0.000000   0.000000  -0.197490   0.572597
   23  N  1 YZ   -0.000000  -0.000000   0.000000   0.573181   0.197289
   24  N  2  S    0.082946  -0.000000  -0.000081  -0.000000  -0.000000
   25  N  2  S    0.113103  -0.000000   0.000764  -0.000000  -0.000000
   26  N  2  X   -0.000000  -0.000000   0.000000  -0.026527   0.080082
   27  N  2  Y   -0.000000  -0.000000   0.000000   0.076989   0.027592
   28  N  2  Z   -0.136092  -0.000000  -0.002032  -0.000000  -0.000000
   29  N  2  S   -1.397159   0.000003  -0.000068  -0.000000  -0.000000
   30  N  2  X   -0.000000  -0.000000   0.000000  -0.053780   0.162252
   31  N  2  Y   -0.000000  -0.000000   0.000000   0.156087   0.055904
   32  N  2  Z   -0.189036  -0.000001  -0.001124  -0.000000  -0.000000
   33  N  2  S    8.069838  -0.000016  -0.008977  -0.000000  -0.000000
   34  N  2  X   -0.000000  -0.000000   0.000000   0.019343  -0.058206
   35  N  2  Y   -0.000000  -0.000000   0.000000  -0.056140  -0.020055
   36  N  2  Z    3.209229  -0.000002  -0.000583  -0.000000  -0.000000
   37  N  2  S  -17.101763   0.000203   0.002953  -0.000000  -0.000000
   38  N  2  X   -0.000000  -0.000000   0.000000  -0.000428   0.002195
   39  N  2  Y   -0.000000  -0.000000   0.000000   0.001242   0.000756
   40  N  2  Z   -4.550919   0.000054   0.002387  -0.000000  -0.000000
   41  N  2 XX   -0.228730  -0.353248   0.453318  -0.000000  -0.000000
   42  N  2 YY   -0.231099   0.353248  -0.450148  -0.000000  -0.000000
   43  N  2 ZZ   -0.112088  -0.000000   0.006554  -0.000000  -0.000000
   44  N  2 XY    0.001070   0.521632   0.407884  -0.000000  -0.000000
   45  N  2 XZ   -0.000000  -0.000000   0.000000   0.197490  -0.572597
   46  N  2 YZ   -0.000000  -0.000000   0.000000  -0.573181  -0.197289

                     31         32         33         34         35
                    2.1369     2.1392     2.4209     2.8107     2.8149
                     A          A          A          A          A   
    1  N  1  S   -0.000000   0.000349  -0.006779   0.000000  -0.000000
    2  N  1  S   -0.000000  -0.000136   0.005215   0.000000  -0.000000
    3  N  1  X   -0.000000  -0.000000   0.000000   0.070437  -0.200538
    4  N  1  Y   -0.000000  -0.000000   0.000000  -0.204448  -0.069090
    5  N  1  Z    0.000000   0.000170   0.121190   0.000000  -0.000000
    6  N  1  S    0.000002  -0.004198   0.458770   0.000000  -0.000000
    7  N  1  X   -0.000000  -0.000000   0.000000  -0.014144   0.033376
    8  N  1  Y   -0.000000  -0.000000   0.000000   0.041052   0.011499
    9  N  1  Z    0.000001   0.006988  -0.490222   0.000000  -0.000000
   10  N  1  S   -0.000011   0.009539  -0.488491   0.000000  -0.000000
   11  N  1  X   -0.000000  -0.000000   0.000000   0.192382  -0.552332
   12  N  1  Y   -0.000000  -0.000000   0.000000  -0.558403  -0.190290
   13  N  1  Z    0.000001  -0.001946   0.751944   0.000000  -0.000000
   14  N  1  S    0.000164  -0.039953   0.043539   0.000000  -0.000000
   15  N  1  X   -0.000000  -0.000000   0.000000  -0.098390   0.282458
   16  N  1  Y   -0.000000  -0.000000   0.000000   0.285583   0.097313
   17  N  1  Z   -0.000044   0.010046  -0.396768   0.000000  -0.000000
   18  N  1 XX    0.406825  -0.522261   0.519590   0.000000  -0.000000
   19  N  1 YY   -0.406824   0.518293   0.516412   0.000000  -0.000000
   20  N  1 ZZ   -0.000001  -0.007758  -0.632740   0.000000  -0.000000
   21  N  1 XY   -0.600772  -0.469754   0.001435   0.000000  -0.000000
   22  N  1 XZ   -0.000000  -0.000000   0.000000  -0.323875   0.941884
   23  N  1 YZ   -0.000000  -0.000000   0.000000   0.940070   0.324500
   24  N  2  S    0.000000  -0.000349  -0.006779   0.000000  -0.000000
   25  N  2  S    0.000000   0.000136   0.005214   0.000000  -0.000000
   26  N  2  X   -0.000000  -0.000000   0.000000  -0.070437   0.200539
   27  N  2  Y   -0.000000  -0.000000   0.000000   0.204448   0.069090
   28  N  2  Z    0.000000   0.000170  -0.121188   0.000000  -0.000000
   29  N  2  S   -0.000002   0.004198   0.458774   0.000000  -0.000000
   30  N  2  X   -0.000000  -0.000000   0.000000   0.014144  -0.033377
   31  N  2  Y   -0.000000  -0.000000   0.000000  -0.041052  -0.011499
   32  N  2  Z    0.000001   0.006989   0.490231   0.000000  -0.000000
   33  N  2  S    0.000011  -0.009539  -0.488449   0.000000  -0.000000
   34  N  2  X   -0.000000  -0.000000   0.000000  -0.192382   0.552332
   35  N  2  Y   -0.000000  -0.000000   0.000000   0.558403   0.190290
   36  N  2  Z    0.000001  -0.001946  -0.751940   0.000000  -0.000000
   37  N  2  S   -0.000164   0.039953   0.043006   0.000000  -0.000000
   38  N  2  X   -0.000000  -0.000000   0.000000   0.098390  -0.282458
   39  N  2  Y   -0.000000  -0.000000   0.000000  -0.285582  -0.097313
   40  N  2  Z   -0.000043   0.010046   0.396626   0.000000  -0.000000
   41  N  2 XX   -0.406825   0.522262   0.519583   0.000000  -0.000000
   42  N  2 YY    0.406825  -0.518293   0.516405   0.000000  -0.000000
   43  N  2 ZZ    0.000001   0.007758  -0.632734   0.000000  -0.000000
   44  N  2 XY    0.600772   0.469754   0.001435   0.000000  -0.000000
   45  N  2 XZ   -0.000000  -0.000000   0.000000  -0.323875   0.941885
   46  N  2 YZ   -0.000000  -0.000000   0.000000   0.940070   0.324500

                     36         37         38         39         40
                    3.0883     3.6362     3.6465     3.9150     3.9250
                     A          A          A          A          A   
    1  N  1  S   -0.029767  -0.000000  -0.000000  -0.085174   0.000000
    2  N  1  S   -0.057727  -0.000000  -0.000000  -0.297302   0.000000
    3  N  1  X   -0.000000   0.297254  -0.864213  -0.000000   0.294509
    4  N  1  Y   -0.000000  -0.862696  -0.297778  -0.000000  -0.854928
    5  N  1  Z   -0.511820  -0.000000  -0.000000   0.690643   0.000000
    6  N  1  S    0.423643  -0.000000  -0.000000   0.895706   0.000000
    7  N  1  X   -0.000000  -0.343751   0.994198  -0.000000  -0.422473
    8  N  1  Y   -0.000000   0.997643   0.342568  -0.000000   1.226393
    9  N  1  Z   -0.475600  -0.000000  -0.000000  -0.735071   0.000000
   10  N  1  S    3.283993  -0.000000  -0.000000   0.936231   0.000000
   11  N  1  X   -0.000000   0.173627  -0.501472  -0.000000   0.239112
   12  N  1  Y   -0.000000  -0.503905  -0.172791  -0.000000  -0.694117
   13  N  1  Z   -1.804459  -0.000000  -0.000000   0.351976   0.000000
   14  N  1  S   -2.161540  -0.000000  -0.000000  -0.276365   0.000000
   15  N  1  X   -0.000000  -0.055216   0.159572  -0.000000  -0.131834
   16  N  1  Y   -0.000000   0.160250   0.054984  -0.000000   0.382700
   17  N  1  Z    0.710369  -0.000000  -0.000000  -0.071259   0.000000
   18  N  1 XX   -0.487255  -0.000000  -0.000000  -0.768578   0.000000
   19  N  1 YY   -0.485919  -0.000000  -0.000000  -0.769032   0.000000
   20  N  1 ZZ    1.169278  -0.000000  -0.000000  -0.603597   0.000000
   21  N  1 XY   -0.000604  -0.000000  -0.000000   0.000205   0.000000
   22  N  1 XZ   -0.000000  -0.026977   0.078614  -0.000000   0.122792
   23  N  1 YZ   -0.000000   0.078292   0.027087  -0.000000  -0.356451
   24  N  2  S    0.029767  -0.000000  -0.000000  -0.085186   0.000000
   25  N  2  S    0.057726  -0.000000  -0.000000  -0.297338   0.000000
   26  N  2  X   -0.000000   0.297258  -0.864219  -0.000000  -0.294505
   27  N  2  Y   -0.000000  -0.862702  -0.297779  -0.000000   0.854922
   28  N  2  Z   -0.511815  -0.000000  -0.000000  -0.690700   0.000000
   29  N  2  S   -0.423639  -0.000000  -0.000000   0.895858   0.000000
   30  N  2  X   -0.000000  -0.343757   0.994207  -0.000000   0.422468
   31  N  2  Y   -0.000000   0.997651   0.342568  -0.000000  -1.226386
   32  N  2  Z   -0.475600  -0.000000  -0.000000   0.735221   0.000000
   33  N  2  S   -3.283989  -0.000000  -0.000000   0.936480   0.000000
   34  N  2  X   -0.000000   0.173629  -0.501476  -0.000000  -0.239110
   35  N  2  Y   -0.000000  -0.503909  -0.172791  -0.000000   0.694113
   36  N  2  Z   -1.804464  -0.000000  -0.000000  -0.351926   0.000000
   37  N  2  S    2.161536  -0.000000  -0.000000  -0.276053   0.000000
   38  N  2  X   -0.000000  -0.055217   0.159574  -0.000000   0.131833
   39  N  2  Y   -0.000000   0.160252   0.054984  -0.000000  -0.382699
   40  N  2  Z    0.710374  -0.000000  -0.000000   0.071359   0.000000
   41  N  2 XX    0.487256  -0.000000  -0.000000  -0.768677   0.000000
   42  N  2 YY    0.485921  -0.000000  -0.000000  -0.769131   0.000000
   43  N  2 ZZ   -1.169285  -0.000000  -0.000000  -0.603605   0.000000
   44  N  2 XY    0.000603  -0.000000  -0.000000   0.000205   0.000000
   45  N  2 XZ   -0.000000   0.026975  -0.078611  -0.000000   0.122792
   46  N  2 YZ   -0.000000  -0.078290  -0.027087  -0.000000  -0.356452

                     41         42         43         44         45
                    3.9325     4.1344     4.4369     5.4914    39.0958
                     A          A          A          A          A   
    1  N  1  S    0.000000   0.114470  -0.102574  -0.053304  -1.569469
    2  N  1  S    0.000000   0.371050  -0.353932  -0.272970   1.854600
    3  N  1  X   -0.857490  -0.000000  -0.000000  -0.000000   0.000000
    4  N  1  Y   -0.295390  -0.000000  -0.000000  -0.000000   0.000000
    5  N  1  Z    0.000000  -0.501428  -0.678344  -0.749455   0.028352
    6  N  1  S    0.000000  -1.355422   1.402513  -0.254779  -0.778896
    7  N  1  X    1.223412  -0.000000  -0.000000  -0.000000   0.000000
    8  N  1  Y    0.421443  -0.000000  -0.000000  -0.000000   0.000000
    9  N  1  Z    0.000000   1.305454   0.582911   4.105588  -0.007729
   10  N  1  S    0.000000  -3.529990   0.634289   0.670040  -0.302162
   11  N  1  X   -0.694214  -0.000000  -0.000000  -0.000000   0.000000
   12  N  1  Y   -0.239144  -0.000000  -0.000000  -0.000000   0.000000
   13  N  1  Z    0.000000   0.733089  -0.346048  -0.527233   0.021559
   14  N  1  S    0.000000   8.730084  -0.136163  -0.568801   0.078587
   15  N  1  X    0.382905  -0.000000  -0.000000  -0.000000   0.000000
   16  N  1  Y    0.131904  -0.000000  -0.000000  -0.000000   0.000000
   17  N  1  Z    0.000000  -2.178889   0.263298   0.201735  -0.051118
   18  N  1 XX    0.000000   1.038351  -0.719018  -0.424894   0.389377
   19  N  1 YY    0.000000   1.039627  -0.721808  -0.426811   0.389419
   20  N  1 ZZ    0.000000   0.250913  -0.928272  -3.200203   0.405351
   21  N  1 XY    0.000000  -0.000577   0.001259   0.000866  -0.000019
   22  N  1 XZ   -0.351676  -0.000000  -0.000000  -0.000000   0.000000
   23  N  1 YZ   -0.121146  -0.000000  -0.000000  -0.000000   0.000000
   24  N  2  S    0.000000  -0.114465  -0.102569   0.053305  -1.569531
   25  N  2  S    0.000000  -0.371035  -0.353918   0.272970   1.854674
   26  N  2  X    0.857484  -0.000000  -0.000000  -0.000000   0.000000
   27  N  2  Y    0.295390  -0.000000  -0.000000  -0.000000   0.000000
   28  N  2  Z    0.000000  -0.501329   0.678370  -0.749448  -0.028354
   29  N  2  S    0.000000   1.355391   1.402463   0.254781  -0.778920
   30  N  2  X   -1.223404  -0.000000  -0.000000  -0.000000   0.000000
   31  N  2  Y   -0.421443  -0.000000  -0.000000  -0.000000   0.000000
   32  N  2  Z    0.000000   1.305351  -0.582986   4.105581   0.007744
   33  N  2  S    0.000000   3.529915   0.634127  -0.670044  -0.302199
   34  N  2  X    0.694210  -0.000000  -0.000000  -0.000000   0.000000
   35  N  2  Y    0.239144  -0.000000  -0.000000  -0.000000   0.000000
   36  N  2  Z    0.000000   0.733148   0.346039  -0.527230  -0.021570
   37  N  2  S    0.000000  -8.730056  -0.134733   0.568803   0.078697
   38  N  2  X   -0.382904  -0.000000  -0.000000  -0.000000   0.000000
   39  N  2  Y   -0.131904  -0.000000  -0.000000  -0.000000   0.000000
   40  N  2  Z    0.000000  -2.178910  -0.262925   0.201731   0.051146
   41  N  2 XX    0.000000  -1.038304  -0.718978   0.424895   0.389394
   42  N  2 YY    0.000000  -1.039580  -0.721768   0.426812   0.389436
   43  N  2 ZZ    0.000000  -0.250888  -0.928269   3.200203   0.405377
   44  N  2 XY    0.000000   0.000576   0.001259  -0.000866  -0.000019
   45  N  2 XZ   -0.351677  -0.000000  -0.000000  -0.000000   0.000000
   46  N  2 YZ   -0.121146  -0.000000  -0.000000  -0.000000   0.000000

                     46
                   39.3597
                     A   
    1  N  1  S   -1.572598
    2  N  1  S    1.869501
    3  N  1  X   -0.000000
    4  N  1  Y   -0.000000
    5  N  1  Z    0.037023
    6  N  1  S   -0.624327
    7  N  1  X   -0.000000
    8  N  1  Y   -0.000000
    9  N  1  Z   -0.364334
   10  N  1  S   -0.954246
   11  N  1  X   -0.000000
   12  N  1  Y   -0.000000
   13  N  1  Z    0.289776
   14  N  1  S    2.114896
   15  N  1  X   -0.000000
   16  N  1  Y   -0.000000
   17  N  1  Z   -0.544008
   18  N  1 XX    0.418682
   19  N  1 YY    0.418722
   20  N  1 ZZ    0.649170
   21  N  1 XY   -0.000018
   22  N  1 XZ   -0.000000
   23  N  1 YZ   -0.000000
   24  N  2  S    1.572537
   25  N  2  S   -1.869427
   26  N  2  X   -0.000000
   27  N  2  Y   -0.000000
   28  N  2  Z    0.037022
   29  N  2  S    0.624296
   30  N  2  X   -0.000000
   31  N  2  Y   -0.000000
   32  N  2  Z   -0.364333
   33  N  2  S    0.954234
   34  N  2  X   -0.000000
   35  N  2  Y   -0.000000
   36  N  2  Z    0.289775
   37  N  2  S   -2.114892
   38  N  2  X   -0.000000
   39  N  2  Y   -0.000000
   40  N  2  Z   -0.544006
   41  N  2 XX   -0.418667
   42  N  2 YY   -0.418707
   43  N  2 ZZ   -0.649154
   44  N  2 XY    0.000018
   45  N  2 XZ   -0.000000
   46  N  2 YZ   -0.000000

 LZ VALUE ANALYSIS FOR THE MOS
 ----------------------------------------
 MO     1 (    1) HAS LZ(WEIGHT)= 0.00(100.0%) 
 MO     2 (    2) HAS LZ(WEIGHT)= 0.00(100.0%) 
 MO     3 (    3) HAS LZ(WEIGHT)= 0.00(100.0%) 
 MO     4 (    4) HAS LZ(WEIGHT)= 0.00(100.0%) 
 MO     5 (    5) HAS LZ(WEIGHT)= 0.00(100.0%) 
 MO     6 (    6) HAS LZ(WEIGHT)= 0.00(100.0%) 
 MO     7 (    7) HAS LZ(WEIGHT)= 0.00(100.0%) 
 MO     8 (    8) HAS LZ(WEIGHT)= 0.00(100.0%) 
 MO     9 (    9) HAS LZ(WEIGHT)= 0.00(100.0%) 
 MO    10 (   10) HAS LZ(WEIGHT)= 0.00(100.0%) 
 MO    11 (   11) HAS LZ(WEIGHT)= 0.00(100.0%) 
 MO    12 (   12) HAS LZ(WEIGHT)= 0.00(100.0%) 
 MO    13 (   13) HAS LZ(WEIGHT)= 0.00(100.0%) 
 MO    14 (   14) HAS LZ(WEIGHT)= 0.00(100.0%) 
 MO    15 (   15) HAS LZ(WEIGHT)= 0.00(100.0%) 
 MO    16 (   16) HAS LZ(WEIGHT)= 0.00(100.0%) 
 MO    17 (   17) HAS LZ(WEIGHT)= 0.00(100.0%) 
 MO    18 (   18) HAS LZ(WEIGHT)= 0.00(100.0%) 
 MO    19 (   19) HAS LZ(WEIGHT)= 0.00(100.0%) 
 MO    20 (   20) HAS LZ(WEIGHT)= 0.00(100.0%) 
 MO    21 (   21) HAS LZ(WEIGHT)= 0.00(100.0%) 
 MO    22 (   22) HAS LZ(WEIGHT)= 0.00(100.0%) 
 MO    23 (   23) HAS LZ(WEIGHT)= 0.00(100.0%) 
 MO    24 (   24) HAS LZ(WEIGHT)= 0.00(100.0%) 
 MO    25 (   25) HAS LZ(WEIGHT)= 0.00(100.0%) 
 MO    26 (   26) HAS LZ(WEIGHT)= 0.00(100.0%) 
 MO    27 (   27) HAS LZ(WEIGHT)= 0.00(100.0%) 
 MO    28 (   28) HAS LZ(WEIGHT)= 0.00(100.0%) 
 MO    29 (   29) HAS LZ(WEIGHT)= 0.00(100.0%) 
 MO    30 (   30) HAS LZ(WEIGHT)= 0.00(100.0%) 
 MO    31 (   31) HAS LZ(WEIGHT)= 0.00(100.0%) 
 MO    32 (   32) HAS LZ(WEIGHT)= 0.00(100.0%) 
 MO    33 (   33) HAS LZ(WEIGHT)= 0.00(100.0%) 
 MO    34 (   34) HAS LZ(WEIGHT)= 0.00(100.0%) 
 MO    35 (   35) HAS LZ(WEIGHT)= 0.00(100.0%) 
 MO    36 (   36) HAS LZ(WEIGHT)= 0.00(100.0%) 
 MO    37 (   37) HAS LZ(WEIGHT)= 0.00(100.0%) 
 MO    38 (   38) HAS LZ(WEIGHT)= 0.00(100.0%) 
 MO    39 (   39) HAS LZ(WEIGHT)= 0.00(100.0%) 
 MO    40 (   40) HAS LZ(WEIGHT)= 0.00(100.0%) 
 MO    41 (   41) HAS LZ(WEIGHT)= 0.00(100.0%) 
 MO    42 (   42) HAS LZ(WEIGHT)= 0.00(100.0%) 
 MO    43 (   43) HAS LZ(WEIGHT)= 0.00(100.0%) 
 MO    44 (   44) HAS LZ(WEIGHT)= 0.00(100.0%) 
 MO    45 (   45) HAS LZ(WEIGHT)= 0.00(100.0%) 
 MO    46 (   46) HAS LZ(WEIGHT)= 0.00(100.0%) 

  ----- BETA SET ----- 

          ------------
          EIGENVECTORS
          ------------

                      1          2          3          4          5
                  -14.4139   -14.4124    -1.1044    -0.5005    -0.4615
                     A          A          A          A          A   
    1  N  1  S    0.394689  -0.394549  -0.090184   0.083735  -0.000000
    2  N  1  S    0.327148  -0.327035  -0.141164   0.134614  -0.000000
    3  N  1  X    0.000000  -0.000000  -0.000000   0.000000   0.195555
    4  N  1  Y    0.000000  -0.000000  -0.000000   0.000000   0.067377
    5  N  1  Z   -0.001200   0.001155  -0.111711  -0.090250  -0.000000
    6  N  1  S    0.014391  -0.013174   0.385094  -0.393309  -0.000000
    7  N  1  X    0.000000  -0.000000  -0.000000   0.000000   0.291894
    8  N  1  Y    0.000000  -0.000000  -0.000000   0.000000   0.100570
    9  N  1  Z    0.000061  -0.002313  -0.143444  -0.119329  -0.000000
   10  N  1  S    0.001812  -0.006074   0.173325  -0.512246  -0.000000
   11  N  1  X    0.000000  -0.000000  -0.000000   0.000000   0.200835
   12  N  1  Y    0.000000  -0.000000  -0.000000   0.000000   0.069197
   13  N  1  Z   -0.000243   0.002042  -0.032715  -0.041629  -0.000000
   14  N  1  S   -0.000445   0.013255  -0.008389   0.135984  -0.000000
   15  N  1  X    0.000000  -0.000000  -0.000000   0.000000   0.009717
   16  N  1  Y    0.000000  -0.000000  -0.000000   0.000000   0.003348
   17  N  1  Z    0.000359  -0.003450   0.009895  -0.057143  -0.000000
   18  N  1 XX   -0.004356   0.004387  -0.010960  -0.008218  -0.000000
   19  N  1 YY   -0.004492   0.004548  -0.017766   0.000821  -0.000000
   20  N  1 ZZ   -0.004216   0.005744   0.022998   0.010460  -0.000000
   21  N  1 XY    0.000062  -0.000073   0.003073  -0.004080  -0.000000
   22  N  1 XZ    0.000000  -0.000000  -0.000000   0.000000  -0.037563
   23  N  1 YZ    0.000000  -0.000000  -0.000000   0.000000  -0.012942
   24  N  2  S    0.394420   0.394818  -0.090185  -0.083734  -0.000000
   25  N  2  S    0.326925   0.327258  -0.141163  -0.134615  -0.000000
   26  N  2  X    0.000000  -0.000000  -0.000000   0.000000   0.195555
   27  N  2  Y    0.000000  -0.000000  -0.000000   0.000000   0.067377
   28  N  2  Z    0.001199   0.001156   0.111711  -0.090250  -0.000000
   29  N  2  S    0.014381   0.013184   0.385100   0.393310  -0.000000
   30  N  2  X    0.000000  -0.000000  -0.000000   0.000000   0.291894
   31  N  2  Y    0.000000  -0.000000  -0.000000   0.000000   0.100570
   32  N  2  Z   -0.000060  -0.002314   0.143446  -0.119328  -0.000000
   33  N  2  S    0.001811   0.006075   0.173297   0.512248  -0.000000
   34  N  2  X    0.000000  -0.000000  -0.000000   0.000000   0.200835
   35  N  2  Y    0.000000  -0.000000  -0.000000   0.000000   0.069197
   36  N  2  Z    0.000242   0.002043   0.032728  -0.041631  -0.000000
   37  N  2  S   -0.000503  -0.013255  -0.007133  -0.135986  -0.000000
   38  N  2  X    0.000000  -0.000000  -0.000000   0.000000   0.009719
   39  N  2  Y    0.000000  -0.000000  -0.000000   0.000000   0.003349
   40  N  2  Z   -0.000375  -0.003450  -0.009557  -0.057143  -0.000000
   41  N  2 XX   -0.004353  -0.004390  -0.010958   0.008217  -0.000000
   42  N  2 YY   -0.004490  -0.004551  -0.017765  -0.000821  -0.000000
   43  N  2 ZZ   -0.004213  -0.005747   0.023003  -0.010461  -0.000000
   44  N  2 XY    0.000062   0.000073   0.003073   0.004080  -0.000000
   45  N  2 XZ    0.000000  -0.000000  -0.000000   0.000000   0.037563
   46  N  2 YZ    0.000000  -0.000000  -0.000000   0.000000   0.012942

                      6          7          8          9         10
                   -0.4263    -0.3174    -0.0243     0.0070     0.0711
                     A          A          A          A          A   
    1  N  1  S   -0.000000   0.027477  -0.000000  -0.000000   0.026969
    2  N  1  S   -0.000000   0.043447  -0.000000  -0.000000   0.048039
    3  N  1  X   -0.066759   0.000000  -0.204896  -0.067271   0.000000
    4  N  1  Y    0.193762   0.000000  -0.070596   0.195246   0.000000
    5  N  1  Z   -0.000000  -0.209448  -0.000000  -0.000000  -0.070418
    6  N  1  S   -0.000000  -0.113777  -0.000000  -0.000000  -0.112630
    7  N  1  X   -0.098744   0.000000  -0.310345  -0.100977   0.000000
    8  N  1  Y    0.286592   0.000000  -0.106928   0.293075   0.000000
    9  N  1  Z   -0.000000  -0.286790  -0.000000  -0.000000  -0.072117
   10  N  1  S   -0.000000  -0.259137  -0.000000  -0.000000  -0.668866
   11  N  1  X   -0.070480   0.000000  -0.428802  -0.141401   0.000000
   12  N  1  Y    0.204559   0.000000  -0.147741   0.410400   0.000000
   13  N  1  Z   -0.000000  -0.192130  -0.000000  -0.000000  -0.237492
   14  N  1  S   -0.000000  -0.084781  -0.000000  -0.000000   0.911092
   15  N  1  X   -0.004850   0.000000  -0.424748  -0.194198   0.000000
   16  N  1  Y    0.014075   0.000000  -0.146345   0.563636   0.000000
   17  N  1  Z   -0.000000  -0.020063  -0.000000  -0.000000   0.426109
   18  N  1 XX   -0.000000  -0.013824  -0.000000  -0.000000   0.015629
   19  N  1 YY   -0.000000  -0.009064  -0.000000  -0.000000   0.017880
   20  N  1 ZZ   -0.000000   0.021891  -0.000000  -0.000000   0.015900
   21  N  1 XY   -0.000000  -0.002149  -0.000000  -0.000000  -0.001016
   22  N  1 XZ    0.013216   0.000000  -0.015434  -0.005340   0.000000
   23  N  1 YZ   -0.038358   0.000000  -0.005318   0.015498   0.000000
   24  N  2  S   -0.000000   0.027477  -0.000000  -0.000000   0.026960
   25  N  2  S   -0.000000   0.043447  -0.000000  -0.000000   0.048026
   26  N  2  X   -0.066759   0.000000   0.204896   0.067271   0.000000
   27  N  2  Y    0.193761   0.000000   0.070596  -0.195246   0.000000
   28  N  2  Z   -0.000000   0.209448  -0.000000  -0.000000   0.070411
   29  N  2  S   -0.000000  -0.113776  -0.000000  -0.000000  -0.112561
   30  N  2  X   -0.098744   0.000000   0.310345   0.100977   0.000000
   31  N  2  Y    0.286592   0.000000   0.106928  -0.293075   0.000000
   32  N  2  Z   -0.000000   0.286790  -0.000000  -0.000000   0.072103
   33  N  2  S   -0.000000  -0.259155  -0.000000  -0.000000  -0.669138
   34  N  2  X   -0.070480   0.000000   0.428802   0.141401   0.000000
   35  N  2  Y    0.204559   0.000000   0.147741  -0.410401   0.000000
   36  N  2  Z   -0.000000   0.192131  -0.000000  -0.000000   0.237326
   37  N  2  S   -0.000000  -0.084264  -0.000000  -0.000000   0.919662
   38  N  2  X   -0.004850   0.000000   0.424747   0.194197   0.000000
   39  N  2  Y    0.014078   0.000000   0.146344  -0.563635   0.000000
   40  N  2  Z   -0.000000   0.020202  -0.000000  -0.000000  -0.423500
   41  N  2 XX   -0.000000  -0.013823  -0.000000  -0.000000   0.015640
   42  N  2 YY   -0.000000  -0.009063  -0.000000  -0.000000   0.017891
   43  N  2 ZZ   -0.000000   0.021892  -0.000000  -0.000000   0.015897
   44  N  2 XY   -0.000000  -0.002149  -0.000000  -0.000000  -0.001016
   45  N  2 XZ   -0.013216   0.000000  -0.015434  -0.005340   0.000000
   46  N  2 YZ    0.038358   0.000000  -0.005318   0.015498   0.000000

                     11         12         13         14         15
                    0.0804     0.0937     0.0984     0.1442     0.1741
                     A          A          A          A          A   
    1  N  1  S   -0.023925  -0.000000  -0.000000   0.011870   0.000000
    2  N  1  S   -0.039165  -0.000000  -0.000000   0.022833   0.000000
    3  N  1  X   -0.000000  -0.070297   0.024435  -0.000000  -0.110837
    4  N  1  Y   -0.000000  -0.024222  -0.070915  -0.000000  -0.038192
    5  N  1  Z    0.020591  -0.000000  -0.000000   0.024821   0.000000
    6  N  1  S    0.143106  -0.000000  -0.000000  -0.036644   0.000000
    7  N  1  X   -0.000000  -0.074562   0.024625  -0.000000  -0.132826
    8  N  1  Y   -0.000000  -0.025691  -0.071467  -0.000000  -0.045768
    9  N  1  Z    0.009887  -0.000000  -0.000000   0.017892   0.000000
   10  N  1  S   -0.070699  -0.000000  -0.000000  -0.463376   0.000000
   11  N  1  X   -0.000000  -0.226180   0.082420  -0.000000  -0.467435
   12  N  1  Y   -0.000000  -0.077934  -0.239203  -0.000000  -0.161067
   13  N  1  Z    0.253607  -0.000000  -0.000000   0.052171   0.000000
   14  N  1  S   12.110967  -0.000000  -0.000000   0.075099   0.000000
   15  N  1  X   -0.000000   0.602515  -0.209184  -0.000000   2.092355
   16  N  1  Y   -0.000000   0.207606   0.607098  -0.000000   0.720967
   17  N  1  Z   -3.987483  -0.000000  -0.000000  -1.547200   0.000000
   18  N  1 XX    0.009536  -0.000000  -0.000000   0.027465   0.000000
   19  N  1 YY    0.007103  -0.000000  -0.000000   0.026920   0.000000
   20  N  1 ZZ   -0.010048  -0.000000  -0.000000  -0.011344   0.000000
   21  N  1 XY    0.001098  -0.000000  -0.000000   0.000246   0.000000
   22  N  1 XZ   -0.000000   0.017237  -0.005969  -0.000000   0.001581
   23  N  1 YZ   -0.000000   0.005939   0.017323  -0.000000   0.000545
   24  N  2  S    0.023933  -0.000000  -0.000000   0.011878   0.000000
   25  N  2  S    0.039178  -0.000000  -0.000000   0.022849   0.000000
   26  N  2  X   -0.000000  -0.070297   0.024435  -0.000000   0.110837
   27  N  2  Y   -0.000000  -0.024222  -0.070914  -0.000000   0.038192
   28  N  2  Z    0.020631  -0.000000  -0.000000  -0.024807   0.000000
   29  N  2  S   -0.143136  -0.000000  -0.000000  -0.036670   0.000000
   30  N  2  X   -0.000000  -0.074562   0.024625  -0.000000   0.132825
   31  N  2  Y   -0.000000  -0.025691  -0.071467  -0.000000   0.045768
   32  N  2  Z    0.009934  -0.000000  -0.000000  -0.017894   0.000000
   33  N  2  S    0.070510  -0.000000  -0.000000  -0.463603   0.000000
   34  N  2  X   -0.000000  -0.226182   0.082421  -0.000000   0.467435
   35  N  2  Y   -0.000000  -0.077935  -0.239204  -0.000000   0.161067
   36  N  2  Z    0.253691  -0.000000  -0.000000  -0.051998   0.000000
   37  N  2  S  -12.110598  -0.000000  -0.000000   0.085275   0.000000
   38  N  2  X   -0.000000   0.602523  -0.209187  -0.000000  -2.092353
   39  N  2  Y   -0.000000   0.207607   0.607103  -0.000000  -0.720967
   40  N  2  Z   -3.987897  -0.000000  -0.000000   1.549761   0.000000
   41  N  2 XX   -0.009545  -0.000000  -0.000000   0.027475   0.000000
   42  N  2 YY   -0.007110  -0.000000  -0.000000   0.026930   0.000000
   43  N  2 ZZ    0.010050  -0.000000  -0.000000  -0.011332   0.000000
   44  N  2 XY   -0.001099  -0.000000  -0.000000   0.000246   0.000000
   45  N  2 XZ   -0.000000  -0.017238   0.005969  -0.000000   0.001581
   46  N  2 YZ   -0.000000  -0.005939  -0.017323  -0.000000   0.000545

                     16         17         18         19         20
                    0.1801     0.2624     0.5185     0.6782     0.7156
                     A          A          A          A          A   
    1  N  1  S    0.000000   0.018833   0.048818  -0.005817  -0.000000
    2  N  1  S    0.000000   0.036074   0.086259  -0.001699  -0.000000
    3  N  1  X    0.042490  -0.000000  -0.000000  -0.000000  -0.153638
    4  N  1  Y   -0.123313  -0.000000  -0.000000  -0.000000  -0.052936
    5  N  1  Z    0.000000  -0.036926   0.113749  -0.109919  -0.000000
    6  N  1  S    0.000000  -0.053374  -0.187243   0.303443  -0.000000
    7  N  1  X    0.050265  -0.000000  -0.000000  -0.000000  -0.562173
    8  N  1  Y   -0.145876  -0.000000  -0.000000  -0.000000  -0.193696
    9  N  1  Z    0.000000   0.001903   0.104490  -0.440958  -0.000000
   10  N  1  S    0.000000  -0.831626  -5.049871  -0.199347  -0.000000
   11  N  1  X    0.179473  -0.000000  -0.000000  -0.000000   0.935712
   12  N  1  Y   -0.520863  -0.000000  -0.000000  -0.000000   0.322398
   13  N  1  Z    0.000000  -0.314860   3.291979   1.311873  -0.000000
   14  N  1  S    0.000000  40.101065   4.048473  -0.088586  -0.000000
   15  N  1  X   -0.714244  -0.000000  -0.000000  -0.000000  -0.420156
   16  N  1  Y    2.072841  -0.000000  -0.000000  -0.000000  -0.144764
   17  N  1  Z    0.000000 -10.628664  -1.529447  -1.046427  -0.000000
   18  N  1 XX    0.000000   0.025368  -0.004855   0.025286  -0.000000
   19  N  1 YY    0.000000   0.026631   0.003040   0.031211  -0.000000
   20  N  1 ZZ    0.000000   0.009364   0.069819   0.084450  -0.000000
   21  N  1 XY    0.000000  -0.000571  -0.003564  -0.002675  -0.000000
   22  N  1 XZ   -0.000153  -0.000000  -0.000000  -0.000000   0.052667
   23  N  1 YZ    0.000445  -0.000000  -0.000000  -0.000000   0.018146
   24  N  2  S    0.000000  -0.018832  -0.048814  -0.005812  -0.000000
   25  N  2  S    0.000000  -0.036077  -0.086254  -0.001692  -0.000000
   26  N  2  X   -0.042490  -0.000000  -0.000000  -0.000000  -0.153640
   27  N  2  Y    0.123313  -0.000000  -0.000000  -0.000000  -0.052936
   28  N  2  Z    0.000000  -0.036910   0.113753   0.109926  -0.000000
   29  N  2  S    0.000000   0.053392   0.187203   0.303387  -0.000000
   30  N  2  X   -0.050265  -0.000000  -0.000000  -0.000000  -0.562181
   31  N  2  Y    0.145876  -0.000000  -0.000000  -0.000000  -0.193698
   32  N  2  Z    0.000000   0.001960   0.104514   0.440986  -0.000000
   33  N  2  S    0.000000   0.831529   5.049938  -0.199262  -0.000000
   34  N  2  X   -0.179473  -0.000000  -0.000000  -0.000000   0.935734
   35  N  2  Y    0.520864  -0.000000  -0.000000  -0.000000   0.322405
   36  N  2  Z    0.000000  -0.314983   3.291935  -1.311871  -0.000000
   37  N  2  S    0.000000 -40.101017  -4.048491  -0.085428  -0.000000
   38  N  2  X    0.714243  -0.000000  -0.000000  -0.000000  -0.420170
   39  N  2  Y   -2.072841  -0.000000  -0.000000  -0.000000  -0.144768
   40  N  2  Z    0.000000 -10.628151  -1.529453   1.047307  -0.000000
   41  N  2 XX    0.000000  -0.025397   0.004851   0.025275  -0.000000
   42  N  2 YY    0.000000  -0.026659  -0.003044   0.031201  -0.000000
   43  N  2 ZZ    0.000000  -0.009390  -0.069825   0.084442  -0.000000
   44  N  2 XY    0.000000   0.000570   0.003564  -0.002675  -0.000000
   45  N  2 XZ   -0.000153  -0.000000  -0.000000  -0.000000  -0.052667
   46  N  2 YZ    0.000445  -0.000000  -0.000000  -0.000000  -0.018146

                     21         22         23         24         25
                    0.7352     0.8174     0.8383     0.8404     0.9348
                     A          A          A          A          A   
    1  N  1  S   -0.000000  -0.000000   0.000000   0.071747  -0.003439
    2  N  1  S   -0.000000  -0.000000   0.000000   0.088708   0.006683
    3  N  1  X    0.052975  -0.181632   0.063346  -0.000000   0.000000
    4  N  1  Y   -0.153752  -0.062582  -0.183850  -0.000000   0.000000
    5  N  1  Z   -0.000000  -0.000000   0.000000  -0.074287   0.279398
    6  N  1  S   -0.000000  -0.000000   0.000000  -1.072512   0.228327
    7  N  1  X    0.195224  -0.590895   0.205916  -0.000000   0.000000
    8  N  1  Y   -0.566609  -0.203594  -0.597635  -0.000000   0.000000
    9  N  1  Z   -0.000000  -0.000000   0.000000  -0.208821   0.766613
   10  N  1  S   -0.000000  -0.000000   0.000000   1.870446  -0.499880
   11  N  1  X   -0.321341   1.625691  -0.556915  -0.000000   0.000000
   12  N  1  Y    0.932648   0.560135   1.616345  -0.000000   0.000000
   13  N  1  Z   -0.000000  -0.000000   0.000000   0.247599  -1.053152
   14  N  1  S   -0.000000  -0.000000   0.000000  -0.683896  10.343866
   15  N  1  X    0.142549  -1.175909   0.397310  -0.000000   0.000000
   16  N  1  Y   -0.413730  -0.405161  -1.153117  -0.000000   0.000000
   17  N  1  Z   -0.000000  -0.000000   0.000000   0.186511  -2.390986
   18  N  1 XX   -0.000000  -0.000000   0.000000  -0.158959   0.014807
   19  N  1 YY   -0.000000  -0.000000   0.000000  -0.157047   0.019219
   20  N  1 ZZ   -0.000000  -0.000000   0.000000  -0.197825   0.145742
   21  N  1 XY   -0.000000  -0.000000   0.000000  -0.000863  -0.001992
   22  N  1 XZ   -0.018671   0.000633   0.000229  -0.000000   0.000000
   23  N  1 YZ    0.054191   0.000218  -0.000663  -0.000000   0.000000
   24  N  2  S   -0.000000  -0.000000   0.000000   0.071758   0.003430
   25  N  2  S   -0.000000  -0.000000   0.000000   0.088722  -0.006697
   26  N  2  X    0.052976   0.181630  -0.063345  -0.000000   0.000000
   27  N  2  Y   -0.153754   0.062581   0.183848  -0.000000   0.000000
   28  N  2  Z   -0.000000  -0.000000   0.000000   0.074298   0.279386
   29  N  2  S   -0.000000  -0.000000   0.000000  -1.072673  -0.228214
   30  N  2  X    0.195226   0.590888  -0.205914  -0.000000   0.000000
   31  N  2  Y   -0.566615   0.203592   0.597630  -0.000000   0.000000
   32  N  2  Z   -0.000000  -0.000000   0.000000   0.208886   0.766574
   33  N  2  S   -0.000000  -0.000000   0.000000   1.871053   0.499698
   34  N  2  X   -0.321348  -1.625678   0.556912  -0.000000   0.000000
   35  N  2  Y    0.932663  -0.560131  -1.616336  -0.000000   0.000000
   36  N  2  Z   -0.000000  -0.000000   0.000000  -0.247517  -1.053067
   37  N  2  S   -0.000000  -0.000000   0.000000  -0.684772 -10.343788
   38  N  2  X    0.142554   1.175903  -0.397308  -0.000000   0.000000
   39  N  2  Y   -0.413740   0.405159   1.153112  -0.000000   0.000000
   40  N  2  Z   -0.000000  -0.000000   0.000000  -0.186683  -2.390996
   41  N  2 XX   -0.000000  -0.000000   0.000000  -0.158987  -0.014803
   42  N  2 YY   -0.000000  -0.000000   0.000000  -0.157075  -0.019216
   43  N  2 ZZ   -0.000000  -0.000000   0.000000  -0.197842  -0.145733
   44  N  2 XY   -0.000000  -0.000000   0.000000  -0.000863   0.001992
   45  N  2 XZ    0.018671   0.000632   0.000229  -0.000000   0.000000
   46  N  2 YZ   -0.054191   0.000218  -0.000664  -0.000000   0.000000

                     26         27         28         29         30
                    1.1780     1.6972     1.6973     1.7101     1.7403
                     A          A          A          A          A   
    1  N  1  S   -0.083621   0.001159   0.000001  -0.000000   0.000000
    2  N  1  S   -0.113084   0.002405   0.000001  -0.000000   0.000000
    3  N  1  X    0.000000   0.000000   0.000000   0.087766  -0.030599
    4  N  1  Y    0.000000   0.000000   0.000000   0.030239   0.088811
    5  N  1  Z   -0.142225  -0.000969  -0.000000  -0.000000   0.000000
    6  N  1  S    1.392496   0.001478   0.000001  -0.000000   0.000000
    7  N  1  X    0.000000   0.000000   0.000000   0.162611  -0.056602
    8  N  1  Y    0.000000   0.000000   0.000000   0.056027   0.164281
    9  N  1  Z   -0.207341  -0.010914  -0.000006  -0.000000   0.000000
   10  N  1  S   -7.987989  -0.012627  -0.000009  -0.000000   0.000000
   11  N  1  X    0.000000   0.000000   0.000000  -0.056305   0.019861
   12  N  1  Y    0.000000   0.000000   0.000000  -0.019400  -0.057644
   13  N  1  Z    3.182398   0.020304   0.000011  -0.000000   0.000000
   14  N  1  S   16.678397   0.001360   0.000029  -0.000000   0.000000
   15  N  1  X    0.000000   0.000000   0.000000   0.001898  -0.000878
   16  N  1  Y    0.000000   0.000000   0.000000   0.000654   0.002549
   17  N  1  Z   -4.439988  -0.011575  -0.000014  -0.000000   0.000000
   18  N  1 XX    0.238209   0.463321  -0.352987  -0.000000   0.000000
   19  N  1 YY    0.232250  -0.440355   0.353000  -0.000000   0.000000
   20  N  1 ZZ    0.110493  -0.009738  -0.000005  -0.000000   0.000000
   21  N  1 XY    0.002690   0.407504   0.521862  -0.000000   0.000000
   22  N  1 XZ    0.000000   0.000000   0.000000   0.571535  -0.196839
   23  N  1 YZ    0.000000   0.000000   0.000000   0.196919   0.571302
   24  N  2  S    0.083614   0.001159   0.000001  -0.000000   0.000000
   25  N  2  S    0.113073   0.002405   0.000001  -0.000000   0.000000
   26  N  2  X    0.000000   0.000000   0.000000   0.087766  -0.030599
   27  N  2  Y    0.000000   0.000000   0.000000   0.030239   0.088810
   28  N  2  Z   -0.142238   0.000969   0.000001  -0.000000   0.000000
   29  N  2  S   -1.392393   0.001477   0.000000  -0.000000   0.000000
   30  N  2  X    0.000000   0.000000   0.000000   0.162611  -0.056602
   31  N  2  Y    0.000000   0.000000   0.000000   0.056027   0.164281
   32  N  2  Z   -0.207370   0.010914   0.000006  -0.000000   0.000000
   33  N  2  S    7.987813  -0.012622  -0.000004  -0.000000   0.000000
   34  N  2  X    0.000000   0.000000   0.000000  -0.056305   0.019861
   35  N  2  Y    0.000000   0.000000   0.000000  -0.019400  -0.057644
   36  N  2  Z    3.182465  -0.020303  -0.000010  -0.000000   0.000000
   37  N  2  S  -16.678320   0.001286  -0.000027  -0.000000   0.000000
   38  N  2  X    0.000000   0.000000   0.000000   0.001899  -0.000878
   39  N  2  Y    0.000000   0.000000   0.000000   0.000654   0.002549
   40  N  2  Z   -4.439999   0.011555  -0.000001  -0.000000   0.000000
   41  N  2 XX   -0.238202   0.463321  -0.352987  -0.000000   0.000000
   42  N  2 YY   -0.232244  -0.440355   0.352999  -0.000000   0.000000
   43  N  2 ZZ   -0.110482  -0.009738  -0.000005  -0.000000   0.000000
   44  N  2 XY   -0.002690   0.407504   0.521862  -0.000000   0.000000
   45  N  2 XZ    0.000000   0.000000   0.000000  -0.571535   0.196839
   46  N  2 YZ    0.000000   0.000000   0.000000  -0.196919  -0.571302

                     31         32         33         34         35
                    2.1907     2.1908     2.4878     2.8641     2.8947
                     A          A          A          A          A   
    1  N  1  S    0.000002  -0.002464  -0.004956  -0.000000  -0.000000
    2  N  1  S    0.000004  -0.004708   0.009072  -0.000000  -0.000000
    3  N  1  X   -0.000000  -0.000000   0.000000  -0.198133   0.068619
    4  N  1  Y   -0.000000  -0.000000   0.000000  -0.068266  -0.199159
    5  N  1  Z    0.000004  -0.005145   0.122519  -0.000000  -0.000000
    6  N  1  S   -0.000019   0.022774   0.435096  -0.000000  -0.000000
    7  N  1  X   -0.000000  -0.000000   0.000000   0.038360  -0.013295
    8  N  1  Y   -0.000000  -0.000000   0.000000   0.013217   0.038588
    9  N  1  Z    0.000013  -0.015493  -0.490202  -0.000000  -0.000000
   10  N  1  S   -0.000040   0.049728  -0.478955  -0.000000  -0.000000
   11  N  1  X   -0.000000  -0.000000   0.000000  -0.550134   0.188732
   12  N  1  Y   -0.000000  -0.000000   0.000000  -0.189546  -0.547771
   13  N  1  Z    0.000019  -0.023036   0.740758  -0.000000  -0.000000
   14  N  1  S    0.000028  -0.060914   0.042126  -0.000000  -0.000000
   15  N  1  X   -0.000000  -0.000000   0.000000   0.280941  -0.096154
   16  N  1  Y   -0.000000  -0.000000   0.000000   0.096797   0.279075
   17  N  1  Z   -0.000008   0.017228  -0.389432  -0.000000  -0.000000
   18  N  1 XX    0.407257  -0.528219   0.513010  -0.000000  -0.000000
   19  N  1 YY   -0.407243   0.511514   0.529474  -0.000000  -0.000000
   20  N  1 ZZ   -0.000009   0.011203  -0.629810  -0.000000  -0.000000
   21  N  1 XY   -0.600387  -0.470176  -0.007433  -0.000000  -0.000000
   22  N  1 XZ   -0.000000  -0.000000   0.000000   0.941949  -0.324433
   23  N  1 YZ   -0.000000  -0.000000   0.000000   0.324544   0.941627
   24  N  2  S   -0.000002   0.002464  -0.004957  -0.000000  -0.000000
   25  N  2  S   -0.000004   0.004708   0.009071  -0.000000  -0.000000
   26  N  2  X   -0.000000  -0.000000   0.000000   0.198134  -0.068619
   27  N  2  Y   -0.000000  -0.000000   0.000000   0.068266   0.199159
   28  N  2  Z    0.000004  -0.005145  -0.122517  -0.000000  -0.000000
   29  N  2  S    0.000019  -0.022774   0.435101  -0.000000  -0.000000
   30  N  2  X   -0.000000  -0.000000   0.000000  -0.038360   0.013295
   31  N  2  Y   -0.000000  -0.000000   0.000000  -0.013217  -0.038588
   32  N  2  Z    0.000013  -0.015493   0.490210  -0.000000  -0.000000
   33  N  2  S    0.000040  -0.049727  -0.478921  -0.000000  -0.000000
   34  N  2  X   -0.000000  -0.000000   0.000000   0.550134  -0.188732
   35  N  2  Y   -0.000000  -0.000000   0.000000   0.189546   0.547771
   36  N  2  Z    0.000019  -0.023036  -0.740755  -0.000000  -0.000000
   37  N  2  S   -0.000028   0.060914   0.041681  -0.000000  -0.000000
   38  N  2  X   -0.000000  -0.000000   0.000000  -0.280941   0.096154
   39  N  2  Y   -0.000000  -0.000000   0.000000  -0.096797  -0.279075
   40  N  2  Z   -0.000008   0.017228   0.389313  -0.000000  -0.000000
   41  N  2 XX   -0.407257   0.528219   0.513003  -0.000000  -0.000000
   42  N  2 YY    0.407243  -0.511514   0.529467  -0.000000  -0.000000
   43  N  2 ZZ    0.000009  -0.011203  -0.629805  -0.000000  -0.000000
   44  N  2 XY    0.600388   0.470176  -0.007433  -0.000000  -0.000000
   45  N  2 XZ   -0.000000  -0.000000   0.000000   0.941949  -0.324433
   46  N  2 YZ   -0.000000  -0.000000   0.000000   0.324544   0.941627

                     36         37         38         39         40
                    3.1597     3.6669     3.6982     3.9501     3.9837
                     A          A          A          A          A   
    1  N  1  S   -0.031169  -0.000000   0.000000   0.000000  -0.000000
    2  N  1  S   -0.062698  -0.000000   0.000000   0.000000  -0.000000
    3  N  1  X    0.000000  -0.864100   0.297800  -0.858214   0.295638
    4  N  1  Y    0.000000  -0.297721  -0.864327  -0.295694  -0.858051
    5  N  1  Z   -0.511499  -0.000000   0.000000   0.000000  -0.000000
    6  N  1  S    0.437873  -0.000000   0.000000   0.000000  -0.000000
    7  N  1  X    0.000000   0.993884  -0.342086   1.221442  -0.420667
    8  N  1  Y    0.000000   0.342438   0.992862   0.420843   1.220931
    9  N  1  Z   -0.463191  -0.000000   0.000000   0.000000  -0.000000
   10  N  1  S    3.269536  -0.000000   0.000000   0.000000  -0.000000
   11  N  1  X    0.000000  -0.499838   0.171529  -0.691138   0.237011
   12  N  1  Y    0.000000  -0.172217  -0.497843  -0.238129  -0.687894
   13  N  1  Z   -1.785827  -0.000000   0.000000   0.000000  -0.000000
   14  N  1  S   -2.207301  -0.000000   0.000000   0.000000  -0.000000
   15  N  1  X    0.000000   0.158898  -0.054434   0.380865  -0.130376
   16  N  1  Y    0.000000   0.054748   0.157988   0.131225   0.378398
   17  N  1  Z    0.719118  -0.000000   0.000000   0.000000  -0.000000
   18  N  1 XX   -0.491844  -0.000000   0.000000   0.000000  -0.000000
   19  N  1 YY   -0.502989  -0.000000   0.000000   0.000000  -0.000000
   20  N  1 ZZ    1.148929  -0.000000   0.000000   0.000000  -0.000000
   21  N  1 XY    0.005031  -0.000000   0.000000   0.000000  -0.000000
   22  N  1 XZ    0.000000   0.081813  -0.028273  -0.352015   0.121582
   23  N  1 YZ    0.000000   0.028188   0.082060  -0.121286  -0.352875
   24  N  2  S    0.031168  -0.000000   0.000000   0.000000  -0.000000
   25  N  2  S    0.062697  -0.000000   0.000000   0.000000  -0.000000
   26  N  2  X    0.000000  -0.864106   0.297801   0.858208  -0.295636
   27  N  2  Y    0.000000  -0.297723  -0.864331   0.295692   0.858047
   28  N  2  Z   -0.511495  -0.000000   0.000000   0.000000  -0.000000
   29  N  2  S   -0.437869  -0.000000   0.000000   0.000000  -0.000000
   30  N  2  X    0.000000   0.993893  -0.342088  -1.221434   0.420665
   31  N  2  Y    0.000000   0.342441   0.992868  -0.420840  -1.220925
   32  N  2  Z   -0.463191  -0.000000   0.000000   0.000000  -0.000000
   33  N  2  S   -3.269532  -0.000000   0.000000   0.000000  -0.000000
   34  N  2  X    0.000000  -0.499842   0.171531   0.691134  -0.237010
   35  N  2  Y    0.000000  -0.172218  -0.497846   0.238127   0.687891
   36  N  2  Z   -1.785832  -0.000000   0.000000   0.000000  -0.000000
   37  N  2  S    2.207297  -0.000000   0.000000   0.000000  -0.000000
   38  N  2  X    0.000000   0.158900  -0.054435  -0.380864   0.130375
   39  N  2  Y    0.000000   0.054748   0.157990  -0.131225  -0.378397
   40  N  2  Z    0.719122  -0.000000   0.000000   0.000000  -0.000000
   41  N  2 XX    0.491845  -0.000000   0.000000   0.000000  -0.000000
   42  N  2 YY    0.502990  -0.000000   0.000000   0.000000  -0.000000
   43  N  2 ZZ   -1.148936  -0.000000   0.000000   0.000000  -0.000000
   44  N  2 XY   -0.005031  -0.000000   0.000000   0.000000  -0.000000
   45  N  2 XZ    0.000000  -0.081810   0.028273  -0.352016   0.121582
   46  N  2 YZ    0.000000  -0.028187  -0.082058  -0.121286  -0.352876

                     41         42         43         44         45
                    3.9892     4.2011     4.4670     5.5293    39.1219
                     A          A          A          A          A   
    1  N  1  S   -0.086516   0.115010  -0.102259  -0.052986  -1.569339
    2  N  1  S   -0.299859   0.371876  -0.352083  -0.271192   1.854803
    3  N  1  X   -0.000000  -0.000000  -0.000000   0.000000   0.000000
    4  N  1  Y   -0.000000  -0.000000  -0.000000   0.000000   0.000000
    5  N  1  Z    0.688264  -0.504266  -0.683115  -0.750251   0.028235
    6  N  1  S    0.912697  -1.357371   1.400760  -0.261094  -0.779527
    7  N  1  X   -0.000000  -0.000000  -0.000000   0.000000   0.000000
    8  N  1  Y   -0.000000  -0.000000  -0.000000   0.000000   0.000000
    9  N  1  Z   -0.727876   1.276681   0.584200   4.111406  -0.007734
   10  N  1  S    0.928181  -3.479981   0.624325   0.636321  -0.302081
   11  N  1  X   -0.000000  -0.000000  -0.000000   0.000000   0.000000
   12  N  1  Y   -0.000000  -0.000000  -0.000000   0.000000   0.000000
   13  N  1  Z    0.345181   0.719081  -0.344350  -0.513465   0.021613
   14  N  1  S   -0.273156   8.614607  -0.133664  -0.518628   0.078559
   15  N  1  X   -0.000000  -0.000000  -0.000000   0.000000   0.000000
   16  N  1  Y   -0.000000  -0.000000  -0.000000   0.000000   0.000000
   17  N  1  Z   -0.068338  -2.149537   0.261256   0.188141  -0.051134
   18  N  1 XX   -0.770127   1.033534  -0.712831  -0.417794   0.389590
   19  N  1 YY   -0.772570   1.037987  -0.712819  -0.417572   0.389545
   20  N  1 ZZ   -0.609912   0.274670  -0.926866  -3.206166   0.405485
   21  N  1 XY    0.001103  -0.002010  -0.000005  -0.000100   0.000020
   22  N  1 XZ   -0.000000  -0.000000  -0.000000   0.000000   0.000000
   23  N  1 YZ   -0.000000  -0.000000  -0.000000   0.000000   0.000000
   24  N  2  S   -0.086528  -0.115005  -0.102255   0.052987  -1.569396
   25  N  2  S   -0.299895  -0.371861  -0.352069   0.271192   1.854871
   26  N  2  X   -0.000000  -0.000000  -0.000000   0.000000   0.000000
   27  N  2  Y   -0.000000  -0.000000  -0.000000   0.000000   0.000000
   28  N  2  Z   -0.688321  -0.504170   0.683140  -0.750245  -0.028236
   29  N  2  S    0.912845   1.357338   1.400710   0.261095  -0.779549
   30  N  2  X   -0.000000  -0.000000  -0.000000   0.000000   0.000000
   31  N  2  Y   -0.000000  -0.000000  -0.000000   0.000000   0.000000
   32  N  2  Z    0.728021   1.276581  -0.584271   4.111399   0.007747
   33  N  2  S    0.928424   3.479908   0.624177  -0.636325  -0.302115
   34  N  2  X   -0.000000  -0.000000  -0.000000   0.000000   0.000000
   35  N  2  Y   -0.000000  -0.000000  -0.000000   0.000000   0.000000
   36  N  2  Z   -0.345133   0.719139   0.344344  -0.513462  -0.021623
   37  N  2  S   -0.272883  -8.614580  -0.132380   0.518630   0.078654
   38  N  2  X   -0.000000  -0.000000  -0.000000   0.000000   0.000000
   39  N  2  Y   -0.000000  -0.000000  -0.000000   0.000000   0.000000
   40  N  2  Z    0.068426  -2.149557  -0.260920   0.188138   0.051159
   41  N  2 XX   -0.770223  -1.033487  -0.712791   0.417796   0.389605
   42  N  2 YY   -0.772667  -1.037940  -0.712779   0.417574   0.389560
   43  N  2 ZZ   -0.609922  -0.274645  -0.926861   3.206166   0.405509
   44  N  2 XY    0.001103   0.002010  -0.000005   0.000100   0.000020
   45  N  2 XZ   -0.000000  -0.000000  -0.000000   0.000000   0.000000
   46  N  2 YZ   -0.000000  -0.000000  -0.000000   0.000000   0.000000

                     46
                   39.3862
                     A   
    1  N  1  S   -1.572460
    2  N  1  S    1.869718
    3  N  1  X    0.000000
    4  N  1  Y    0.000000
    5  N  1  Z    0.036949
    6  N  1  S   -0.624964
    7  N  1  X    0.000000
    8  N  1  Y    0.000000
    9  N  1  Z   -0.364597
   10  N  1  S   -0.954284
   11  N  1  X    0.000000
   12  N  1  Y    0.000000
   13  N  1  Z    0.289886
   14  N  1  S    2.114083
   15  N  1  X    0.000000
   16  N  1  Y    0.000000
   17  N  1  Z   -0.543817
   18  N  1 XX    0.418931
   19  N  1 YY    0.418885
   20  N  1 ZZ    0.649513
   21  N  1 XY    0.000021
   22  N  1 XZ    0.000000
   23  N  1 YZ    0.000000
   24  N  2  S    1.572404
   25  N  2  S   -1.869651
   26  N  2  X    0.000000
   27  N  2  Y    0.000000
   28  N  2  Z    0.036948
   29  N  2  S    0.624936
   30  N  2  X    0.000000
   31  N  2  Y    0.000000
   32  N  2  Z   -0.364597
   33  N  2  S    0.954273
   34  N  2  X    0.000000
   35  N  2  Y    0.000000
   36  N  2  Z    0.289885
   37  N  2  S   -2.114080
   38  N  2  X    0.000000
   39  N  2  Y    0.000000
   40  N  2  Z   -0.543815
   41  N  2 XX   -0.418917
   42  N  2 YY   -0.418871
   43  N  2 ZZ   -0.649498
   44  N  2 XY   -0.000021
   45  N  2 XZ    0.000000
   46  N  2 YZ    0.000000
 ...... END OF UHF CALCULATION ......
 STEP CPU TIME =     1.57 TOTAL CPU TIME =          1.6 (      0.0 MIN)
 TOTAL WALL CLOCK TIME=          1.6 SECONDS, CPU UTILIZATION IS    98.76%

     ---------------------------------------------------------------------
     PROPERTIES FOR THE B3LYP    DFT FUNCTIONAL (UHF  TYPE) DENSITY MATRIX
     ---------------------------------------------------------------------

          -----------------
          ENERGY COMPONENTS
          -----------------

         WAVEFUNCTION NORMALIZATION =       1.0000000000

                ONE ELECTRON ENERGY =    -194.1548565027
                TWO ELECTRON ENERGY =      61.3050797080
           NUCLEAR REPULSION ENERGY =      23.6239843411
                                      ------------------
                       TOTAL ENERGY =    -109.2257924536

 ELECTRON-ELECTRON POTENTIAL ENERGY =      61.3050797080
  NUCLEUS-ELECTRON POTENTIAL ENERGY =    -303.5083877853
   NUCLEUS-NUCLEUS POTENTIAL ENERGY =      23.6239843411
                                      ------------------
             TOTAL POTENTIAL ENERGY =    -218.5793237362
               TOTAL KINETIC ENERGY =     109.3535312826
                 VIRIAL RATIO (V/T) =       1.9988318728

          ---------------------------------------
          MULLIKEN AND LOWDIN POPULATION ANALYSES
          ---------------------------------------

     ATOMIC MULLIKEN POPULATION IN EACH MOLECULAR ORBITAL
        ALPHA ORBITALS

                      1          2          3          4          5

                  1.000000   1.000000   1.000000   1.000000   1.000000

    1             0.500300   0.499704   0.499665   0.499999   0.500000
    2             0.499700   0.500296   0.500335   0.500001   0.500000

                      6          7          8

                  1.000000   1.000000   1.000000

    1             0.500041   0.500000   0.500000
    2             0.499959   0.500000   0.500000

     ATOMIC MULLIKEN POPULATION IN EACH MOLECULAR ORBITAL
         BETA ORBITALS

                      1          2          3          4          5

                  1.000000   1.000000   1.000000   1.000000   1.000000

    1             0.500344   0.499660   0.499646   0.500000   0.500000
    2             0.499656   0.500340   0.500354   0.500000   0.500000

                      6

                  1.000000

    1             0.500000
    2             0.500000

     ATOMIC SPIN POPULATION (ALPHA MINUS BETA)
       ATOM         MULL.POP.                    LOW.POP.
    1 H             1.000060                     1.000001
    2 H             0.999940                     0.999999


          ********* ALL ELECTRONS ********

               ----- POPULATIONS IN EACH AO -----
                             MULLIKEN      LOWDIN
              1  N  1  S      1.09595     1.04016
              2  N  1  S      0.88917     0.92042
              3  N  1  X      0.21814     0.21720
              4  N  1  Y      0.31356     0.31737
              5  N  1  Z      0.22839     0.21849
              6  N  1  S      0.97446     0.54547
              7  N  1  X      0.48693     0.45359
              8  N  1  Y      0.64631     0.61735
              9  N  1  Z      0.45369     0.44428
             10  N  1  S      0.72427     0.32470
             11  N  1  X      0.32110     0.31353
             12  N  1  Y      0.43561     0.41023
             13  N  1  Z      0.12120     0.30079
             14  N  1  S     -0.04602     0.08959
             15  N  1  X      0.01080     0.04574
             16  N  1  Y      0.03106     0.06282
             17  N  1  Z      0.05723     0.06738
             18  N  1 XX     -0.00913     0.16651
             19  N  1 YY     -0.01428     0.16292
             20  N  1 ZZ      0.02441     0.21926
             21  N  1 XY      0.00003     0.00003
             22  N  1 XZ      0.01609     0.02301
             23  N  1 YZ      0.02040     0.03917
             24  N  2  S      1.09595     1.04016
             25  N  2  S      0.88917     0.92042
             26  N  2  X      0.21814     0.21720
             27  N  2  Y      0.31356     0.31737
             28  N  2  Z      0.22839     0.21849
             29  N  2  S      0.97447     0.54547
             30  N  2  X      0.48693     0.45359
             31  N  2  Y      0.64631     0.61735
             32  N  2  Z      0.45369     0.44428
             33  N  2  S      0.72423     0.32471
             34  N  2  X      0.32110     0.31353
             35  N  2  Y      0.43561     0.41023
             36  N  2  Z      0.12121     0.30079
             37  N  2  S     -0.04487     0.08960
             38  N  2  X      0.01080     0.04574
             39  N  2  Y      0.03106     0.06282
             40  N  2  Z      0.05737     0.06738
             41  N  2 XX     -0.00913     0.16651
             42  N  2 YY     -0.01428     0.16292
             43  N  2 ZZ      0.02441     0.21926
             44  N  2 XY      0.00003     0.00003
             45  N  2 XZ      0.01609     0.02301
             46  N  2 YZ      0.02040     0.03917

          ----- MULLIKEN ATOMIC OVERLAP POPULATIONS -----
          (OFF-DIAGONAL ELEMENTS NEED TO BE MULTIPLIED BY 2)

             1           2

    1    6.6571152
    2    0.3422418   6.6584013

          TOTAL MULLIKEN AND LOWDIN ATOMIC POPULATIONS
       ATOM         MULL.POP.    CHARGE          LOW.POP.     CHARGE
    1 H             6.999357    0.000643         6.999990    0.000010
    2 H             7.000643   -0.000643         7.000010   -0.000010

          -------------------------------
          BOND ORDER AND VALENCE ANALYSIS     BOND ORDER THRESHOLD=0.050
          -------------------------------

                   BOND                       BOND                       BOND
  ATOM PAIR DIST  ORDER      ATOM PAIR DIST  ORDER      ATOM PAIR DIST  ORDER
    1   2  1.098  2.788

                       TOTAL       BONDED        FREE
      ATOM            VALENCE     VALENCE     VALENCE
    1 H                 3.268       2.788       0.480
    2 H                 3.268       2.788       0.480

          -----------------------------------------
          ATOMIC SPIN DENSITY AT THE NUCLEUS (A.U.)
          -----------------------------------------
                            SPIN DENS    ALPHA DENS     BETA DENS
    1  H            7.0     0.2158443      97.65719      97.44135
    2  H            7.0     0.2158501      97.65721      97.44136

          ---------------------
          ELECTROSTATIC MOMENTS
          ---------------------

 POINT   1           X           Y           Z (BOHR)    CHARGE
                 0.000000    0.000000    0.000000        0.00 (A.U.)
         DX          DY          DZ         /D/  (DEBYE)
     0.000000    0.000000    0.000002    0.000002
 ...... END OF PROPERTY EVALUATION ......
 STEP CPU TIME =     0.01 TOTAL CPU TIME =          1.6 (      0.0 MIN)
 TOTAL WALL CLOCK TIME=          1.6 SECONDS, CPU UTILIZATION IS    99.38%
               580000  WORDS OF DYNAMIC MEMORY USED
 EXECUTION OF GAMESS TERMINATED NORMALLY Fri Dec 13 14:27:54 2019
 DDI: 263640 bytes (0.3 MB / 0 MWords) used by master data server.

 ----------------------------------------
 CPU timing information for all processes
 ========================================
 0: 1.592 + 0.16 = 1.608
 ----------------------------------------
 ddikick.x: exited gracefully.
----- accounting info -----
Files used on the master node amlan-PT-3420 were:
-rw-rw-r-- 1 akroy akroy   71201 Dec 13 14:27 /tmp/n2_b3lyp.dat
-rw-rw-r-- 1 akroy akroy     306 Dec 13 14:27 /tmp/n2_b3lyp.F05
-rw-rw-r-- 1 akroy akroy 1980176 Dec 13 14:27 /tmp/n2_b3lyp.F08
-rw-rw-r-- 1 akroy akroy 1930480 Dec 13 14:27 /tmp/n2_b3lyp.F10
Fri Dec 13 14:27:57 IST 2019
0.0u 0.0s 0:04.68 0.4% 0+0k 0+16io 0pf+0w
